LAMMPS data file via write_data, version 28 Mar 2023, timestep = 50000, units = metal

543 atoms
3 atom types

0 15 xlo xhi
0 15 ylo yhi
0 100 zlo zhi

Masses

1 12.0107
2 2.0000
3 15.9994

Atoms # full/kk

56 19 2 0.4238 2.1519962647115616 3.059094777390717 34.629554431356006 -1 4 0
57 19 3 -0.8476 1.7544996647979039 3.0585556094926636 33.73469233747791 -1 4 0
55 19 2 0.4238 2.1180481071484833 3.899440317880202 33.47320443849216 -1 4 0
255 85 3 -0.8476 3.3453454885331806 4.404280023618325 35.8684936228471 -2 1 0
253 85 2 0.4238 2.9721700075887965 3.832653923021198 36.57312661671074 -2 1 0
254 85 2 0.4238 4.293620509609764 4.360583844497897 36.004382754322215 -2 1 0
64 22 2 0.4238 4.0563802291578535 1.7482918332924864 33.88075956811619 -2 0 0
65 22 2 0.4238 5.526728107001262 1.2856541662730379 34.018626693018646 -2 0 0
66 22 3 -0.8476 4.836317226466454 1.753373465385227 34.489408734033105 -2 0 0
503 168 2 0.4238 14.976570989270336 3.2773554102296036 34.84521797508843 -1 -1 0
359 120 2 0.4238 4.431679704041931 1.5994316322849327 36.333594250259445 0 2 0
367 123 2 0.4238 6.724597458165374 4.92640559113951 36.85730662653046 -3 3 0
369 123 3 -0.8476 5.851899945856284 5.4143735886598705 36.970199351008894 -3 3 0
504 168 3 -0.8476 14.466366636423288 3.0314243236969958 35.64599896146452 -1 -1 0
274 92 2 0.4238 3.156853564772737 6.337862626379126 36.43610884275626 4 -4 0
360 120 3 -0.8476 3.954663657898173 1.6068303343344446 37.14973935391442 0 2 0
195 65 3 -0.8476 9.92354647366778 14.928245334032974 37.22144454252272 -5 1 0
508 170 2 0.4238 7.890136996364158 2.472128207997903 37.22077421039487 -1 2 0
192 64 3 -0.8476 0.1269102243453492 0.2481780678402147 36.07365370719489 -1 -1 0
190 64 2 0.4238 0.5860912586106115 0.21437912201272044 36.931093781196154 -1 -1 0
191 64 2 0.4238 14.333582239802451 14.71159512896119 36.19978415757646 -2 -2 0
502 168 2 0.4238 14.69617013423062 2.0750535043739857 35.79619280467798 -1 -1 0
510 170 3 -0.8476 7.985999510952218 3.3640270771204777 36.79916190009394 -1 2 0
85 29 2 0.4238 9.219250910825693 12.229750331640632 34.87396794226622 4 2 0
87 29 3 -0.8476 9.115945762590178 12.551787183041355 35.77757902232998 4 2 0
86 29 2 0.4238 9.641615584551147 11.997372549424853 36.400603710078066 4 2 0
193 65 2 0.4238 9.54072563959094 14.323362476588944 36.515907484790624 -5 1 0
155 52 2 0.4238 6.072580262755022 7.26096360542792 37.54075896672342 2 -5 0
323 108 2 0.4238 6.905933818484835 11.064072473416484 37.61448151643813 -1 5 0
150 50 3 -0.8476 3.2512252897281875 12.068933636854249 37.813632015886995 1 -2 0
148 50 2 0.4238 3.181911630484823 12.581283125049815 36.96207733122276 1 -2 0
403 135 2 0.4238 1.5891097419829032 7.827464606425675 37.35783016532626 -1 2 0
233 78 2 0.4238 2.0420439105537387 14.078591631516767 34.946562808227526 -4 6 0
156 52 3 -0.8476 6.299148446443915 8.007192159662393 38.0395882938997 2 -5 0
455 152 2 0.4238 5.3840737666148595 9.191085712454564 36.52698717364286 0 2 0
456 152 3 -0.8476 4.667937939328075 9.419782260944872 35.94458293722712 0 2 0
324 108 3 -0.8476 6.3598975445578425 11.686792962187841 37.071966445803255 -1 5 0
232 78 2 0.4238 3.4057175588779267 14.705908042833368 35.38072590828584 -4 6 0
275 92 2 0.4238 3.4628154280590584 7.940614837645837 36.2736640736465 4 -4 0
276 92 3 -0.8476 2.995683725651551 7.24898359481465 36.80218735081128 4 -4 0
234 78 3 -0.8476 2.8708384467482206 13.865391803083035 35.38067251985267 -4 6 0
454 152 2 0.4238 4.594519233732881 10.35151357881351 35.89359066854694 0 2 0
4 2 2 0.4238 0.0035560885048358335 10.525439322410778 39.53053345055018 -4 0 0
149 50 2 0.4238 4.203327690501349 11.760746179061815 37.952351852137035 1 -2 0
35 12 2 0.4238 9.72373462868522 8.117370799983199 38.0534515867353 -2 1 0
100 34 2 0.4238 10.652861773492644 10.21999120369267 37.75680692773951 -1 5 0
36 12 3 -0.8476 10.57930432069098 8.6410202108705 37.99537800324345 -2 1 0
34 12 2 0.4238 11.474692663105005 8.093130743592695 38.26207793277813 -2 1 0
413 138 2 0.4238 13.575871178859492 7.599436705137667 38.30678543106051 -3 1 0
6 2 3 -0.8476 14.539845732442084 11.400425405638158 39.483404327284305 -5 0 0
102 34 3 -0.8476 10.683274629087732 11.222770930824083 37.66832575421629 -1 5 0
322 108 2 0.4238 6.9939453809391265 12.141459351628626 36.47423147159894 -1 5 0
494 165 2 0.4238 13.839112262227362 11.727135034020113 37.67748967799466 -3 2 0
495 165 3 -0.8476 13.121786002489413 12.18995793277566 37.1666266437071 -3 2 0
493 165 2 0.4238 12.271531548641857 11.804839187636913 37.323952268912855 -3 2 0
206 69 2 0.4238 5.570372941513745 5.481695860089081 44.24116194903124 -3 0 0
184 62 2 0.4238 2.3018621915192408 2.338873851360049 43.50135275503773 -1 -3 0
178 60 2 0.4238 4.546572696458245 7.66287590740171 44.52061572462925 -4 1 0
386 129 2 0.4238 0.15599455181920324 1.3844887022225911 39.344000666864275 -2 -2 0
207 69 3 -0.8476 5.708021467279704 6.365967169070967 43.86912367058509 -3 0 0
489 163 3 -0.8476 1.7466512577221274 3.5527730059878206 37.86587681244905 1 1 0
488 163 2 0.4238 0.880373680338409 3.4947605153969796 37.397044239669924 1 1 0
133 45 2 0.4238 3.0131296722688274 0.9986581599600448 41.67843253962943 -1 0 0
535 179 2 0.4238 4.568153643911939 2.8570571248114565 43.12193638005947 -1 2 0
358 120 2 0.4238 4.3555904531755685 0.8821613365737772 37.69102252182681 0 2 0
537 179 3 -0.8476 4.904550800625024 2.2812176757071243 43.81306730084904 -1 2 0
135 45 3 -0.8476 2.292023999158792 1.6942287200848467 41.77514737204544 -1 0 0
134 45 2 0.4238 1.3737047163817337 1.3600088918392514 41.58793397964368 -1 0 0
76 26 2 0.4238 2.3858751505113878 5.828081947942339 41.933254074813306 -3 0 0
78 26 3 -0.8476 1.5950980707279818 6.39678632479389 41.80803954240313 -3 0 0
479 160 2 0.4238 3.123329487265861 3.5408632200730277 41.97876024048836 -4 4 0
63 21 3 -0.8476 4.375533804640802 3.7047438932559085 39.26868490392359 -2 1 0
62 21 2 0.4238 4.5937569819359725 3.023242222890886 38.644959981842376 -2 1 0
480 160 3 -0.8476 3.7265142227064203 4.343371129215372 42.17104598800771 -4 4 0
368 123 2 0.4238 5.249654310177302 4.919374337194316 37.539250345487964 -3 3 0
478 160 2 0.4238 4.220077403124849 4.365162948889548 41.3382433698703 -4 4 0
61 21 2 0.4238 3.4202614166921 3.7198488907661256 39.22314174703187 -2 1 0
385 129 2 0.4238 1.6989785956345689 1.6968416630027332 38.895505556079186 -2 -2 0
188 63 2 0.4238 6.291901419845702 6.8324092019786455 40.945209410591204 0 -6 0
82 28 2 0.4238 0.6303371127350635 5.674383878627822 40.36385344975042 -2 -2 0
487 163 2 0.4238 1.5967844852857718 4.26552442600368 38.514103957126856 1 1 0
187 63 2 0.4238 6.055409399041413 5.7819636584356005 42.09117761857973 0 -6 0
189 63 3 -0.8476 6.179757905512485 5.864200867856259 41.103229851201135 0 -6 0
105 35 3 -0.8476 6.968867627298863 2.969574679315453 40.936840030713284 -3 1 0
103 35 2 0.4238 6.324134862663613 3.5309066180044284 40.476032951099185 -3 1 0
379 127 2 0.4238 7.796206855237122 1.7854148658472153 39.11551086984155 0 -3 0
104 35 2 0.4238 7.852508775055108 3.361914142389189 41.07641405531835 -3 1 0
77 26 2 0.4238 1.2118127006868626 6.466735358189746 42.715097399757134 -3 0 0
509 170 2 0.4238 8.918441275768485 3.4691554101075726 36.56629062912892 -1 2 0
118 40 2 0.4238 13.435898973043633 4.247568972912409 37.345925664729094 -3 -1 0
120 40 3 -0.8476 13.10130169338058 4.4124987484682805 38.307345681779616 -3 -1 0
108 36 3 -0.8476 12.04821241679905 14.386341885063759 38.671668531925214 -5 -1 0
381 127 3 -0.8476 7.745291092311689 1.120982254027074 38.41696706899886 0 -3 0
84 28 3 -0.8476 0.5685488483631069 5.450242170412086 39.38049988545298 -2 -2 0
7 3 2 0.4238 6.9111250095049535 1.5979500302454883 41.76586418747675 -4 -2 0
394 132 2 0.4238 7.562228519976281 6.178745689866437 39.29064487328205 -2 -2 0
396 132 3 -0.8476 8.407291900312943 6.631342338700241 39.11421386886561 -2 -2 0
222 74 3 -0.8476 13.012868012698254 7.62588479049586 41.692910446636546 -1 0 0
205 69 2 0.4238 6.5540278965694805 6.647492735220241 44.361375603635324 -3 0 0
453 151 3 -0.8476 13.423080823726359 1.7786136106834105 39.515128621050174 -3 0 0
452 151 2 0.4238 12.936892199229433 0.9755009177030705 39.13020986760082 -3 0 0
451 151 2 0.4238 13.276318951342375 2.601589566399866 38.98108264580796 -3 0 0
106 36 2 0.4238 11.26100611271762 14.587183243346313 38.039195735008974 -5 -1 0
119 40 2 0.4238 13.893850790449296 4.726172013403387 38.79627520669917 -3 -1 0
8 3 2 0.4238 7.166085260436287 0.021717004451018256 41.9077487386082 -4 -2 0
218 73 2 0.4238 9.706834648794242 3.9022272236785565 40.60582097260872 2 6 0
505 169 2 0.4238 11.001816611554185 4.18465545681998 38.75210700901854 -2 -4 0
507 169 3 -0.8476 10.033148983537703 4.137724982239693 38.905156858804354 -2 -4 0
217 73 2 0.4238 9.014586352231316 4.9764423421407145 41.59410689319224 2 6 0
219 73 3 -0.8476 9.358297192527615 4.078783305109204 41.58265184898645 2 6 0
401 134 2 0.4238 14.011346683428247 0.2884098530886671 42.16455124863756 -2 0 0
221 74 2 0.4238 13.40565533500919 7.050862321634284 42.40124878431237 -1 0 0
298 100 2 0.4238 9.729732096626874 3.554329458923822 43.312933691422415 -1 1 0
194 65 2 0.4238 9.173629672360963 0.2800982106263558 37.69904681005963 -5 2 0
506 169 2 0.4238 9.710881701677836 5.076876183480342 38.8725730180168 -2 -4 0
9 3 3 -0.8476 6.588775839064442 0.7737482446294808 42.24546352643701 -4 -2 0
13 5 2 0.4238 12.838372486313029 1.5945423422822476 43.33429040289081 2 2 0
402 134 3 -0.8476 14.068038060805724 1.2604172663492565 42.16160208345087 -2 0 0
400 134 2 0.4238 13.66604436756561 1.5188508432763004 41.300262011134656 -2 0 0
272 91 2 0.4238 1.9670405937328452 8.216820782890638 40.878862043181826 2 1 0
230 77 2 0.4238 5.025123796535816 9.003314705290434 39.04167147231644 0 -1 0
409 137 2 0.4238 5.349001693797344 11.639075366605832 39.79913986532657 2 0 0
411 137 3 -0.8476 5.6678569255921945 12.548836908567617 39.92154731874352 2 0 0
404 135 2 0.4238 1.0667335755224783 8.443145544622118 38.7237826926582 -1 2 0
405 135 3 -0.8476 0.7838469261344811 8.00967187847054 37.89803567236239 -1 2 0
231 77 3 -0.8476 4.369230546279073 9.698041177791128 39.199204624494044 0 -1 0
327 109 3 -0.8476 4.26078158359502 0.06298337178816182 41.27672205780604 2 -2 0
113 38 2 0.4238 2.8149219904894025 12.406773142864857 41.5305506097931 4 0 0
112 38 2 0.4238 4.169377737327477 11.868158407794843 41.91112404950525 4 0 0
244 82 2 0.4238 1.3118363246776277 10.511035533353327 41.867464022973834 2 0 0
245 82 2 0.4238 0.1677004670087413 10.583560135041216 42.842633522226095 2 0 0
229 77 2 0.4238 3.93271501920212 9.744868091128247 38.34039066870076 0 -1 0
279 93 3 -0.8476 4.526601349709732 9.615388658137709 42.44170887660607 -2 -1 0
114 38 3 -0.8476 3.5779095201080655 12.635952299563415 42.04446716077347 4 0 0
154 52 2 0.4238 7.2668578227817315 7.912343771129102 38.09607982872013 2 -5 0
277 93 2 0.4238 3.7902118002373753 9.465028979573187 41.76521775254095 -2 -1 0
29 10 2 0.4238 6.166195418848885 9.210777756961676 41.73246816571812 1 0 0
30 10 3 -0.8476 6.9050812119377385 8.971821326477738 41.14784793571004 1 0 0
246 82 3 -0.8476 1.0706790815779135 10.871484444763235 42.731076230004376 2 0 0
278 93 2 0.4238 4.226796537244677 9.164905521727318 43.24777988783752 -2 -1 0
19 7 2 0.4238 0.40166781160650644 12.758265194367265 43.160492420125614 2 2 0
5 2 2 0.4238 0.31633143687962084 12.051371292851151 39.43308412149386 -4 0 0
20 7 2 0.4238 0.37480547805829434 13.998228220690951 43.997199606665255 2 2 0
387 129 3 -0.8476 1.0465838606458189 1.0108277084436932 39.12061043925841 -2 -2 0
424 142 2 0.4238 5.4509769286637075 13.904973427964004 38.83306995742042 0 3 0
425 142 2 0.4238 4.818223672910914 0.03761730120291383 39.596676358443 0 4 0
426 142 3 -0.8476 5.260067535881683 14.880089125369773 38.71704890976309 0 3 0
380 127 2 0.4238 6.913759498735652 0.6137583642207802 38.46476099995482 0 -3 0
83 28 2 0.4238 0.63951366179439 6.297124197431216 38.91550376075267 -2 -2 0
326 109 2 0.4238 4.052868138641796 14.140418558433646 41.5358034260549 2 -3 0
174 58 3 -0.8476 1.734834732574684 13.132532587178181 39.677322958741364 1 -2 0
325 109 2 0.4238 5.228652606495461 0.18595363310109306 41.59717797605266 2 -2 0
172 58 2 0.4238 2.343812187431072 12.717714653305615 39.025193066171006 1 -2 0
271 91 2 0.4238 2.892471337955357 9.169172668599165 40.098163483441816 2 1 0
273 91 3 -0.8476 2.067957339787904 9.10640326741436 40.54152442876937 2 1 0
410 137 2 0.4238 6.618452127532015 12.338977674027518 40.14320843112801 2 0 0
173 58 2 0.4238 1.7245847853970386 14.091990991009167 39.56859441786743 1 -2 0
28 10 2 0.4238 7.670164959035849 9.455351553288155 41.44936870978627 1 0 0
523 175 2 0.4238 13.397377593866187 9.732384936041694 44.36361507992874 2 -6 0
524 175 2 0.4238 12.091560456189937 9.981623690862513 43.61342150443584 2 -6 0
347 116 2 0.4238 8.750457947346495 13.607773511249281 42.40579900984401 -2 0 0
525 175 3 -0.8476 13.040321051422623 9.733126595076014 43.41519435408698 2 -6 0
346 116 2 0.4238 9.563450099438192 14.43800146422112 41.56379488860662 -2 0 0
45 15 3 -0.8476 9.74581277612973 10.047897839300502 41.54063085749649 1 2 0
44 15 2 0.4238 9.80606613755272 9.071453523411646 41.53926912651391 1 2 0
348 116 3 -0.8476 8.641984084718548 14.103040327287781 41.54393869451572 -2 0 0
43 15 2 0.4238 10.44070254806014 10.45719213960912 41.003760463958045 1 2 0
512 171 2 0.4238 11.525751396892222 14.280350656302295 42.49259325866901 -5 -3 0
399 133 3 -0.8476 8.484760701438008 11.81544165843491 39.80218500473161 -6 -2 0
153 51 3 -0.8476 12.045148657801942 11.179347434497705 40.55713847874317 -1 1 0
397 133 2 0.4238 8.815343097632338 11.127150358517975 40.45234344576047 -6 -2 0
151 51 2 0.4238 11.81965753571828 11.862215584900396 39.93392159430676 -1 1 0
398 133 2 0.4238 8.649260682857387 12.608742916609733 40.3042193180347 -6 -2 0
152 51 2 0.4238 13.03577683129368 11.254212582682545 40.44173011625268 -1 1 0
511 171 2 0.4238 11.595083186073154 14.49611838561064 40.982531743021696 -5 -3 0
513 171 3 -0.8476 11.256894262335763 14.918352970477097 41.8203646743768 -5 -3 0
101 34 2 0.4238 10.098139343099069 11.590352045063996 38.43060846083938 -1 5 0
440 147 2 0.4238 13.080014886655116 13.326186749727892 43.74526857611509 -1 -3 0
441 147 3 -0.8476 12.103540938631994 13.454516221934325 43.921978891284255 -1 -3 0
414 138 3 -0.8476 12.700789227414642 7.363516987717964 38.679231796527 -3 1 0
21 7 3 -0.8476 14.820303170148787 13.526968926226997 43.38535993405957 1 2 0
107 36 2 0.4238 12.665279866492142 13.774082306487184 38.282773446802246 -5 -1 0
220 74 2 0.4238 12.988627537086304 8.481724222843777 42.205134169392856 -1 0 0
412 138 2 0.4238 12.853084820789414 7.583867418113275 39.642495007451046 -3 1 0
471 157 3 -0.8476 10.013532557295902 7.406423003583184 41.843412592114845 3 1 0
470 157 2 0.4238 10.02240683010688 6.9180138935118585 42.68942021709084 3 1 0
469 157 2 0.4238 10.990938303604462 7.470699964386822 41.596105108540776 3 1 0
395 132 2 0.4238 8.664216637803642 6.88237477293586 39.957502704843094 -2 -2 0
501 167 3 -0.8476 7.074373936536948 5.704216194999457 47.81962734954565 -3 1 0
186 62 3 -0.8476 1.8577112281766408 2.625332078736337 44.34791605943561 -1 -3 0
128 43 2 0.4238 2.4544625731020115 1.3713244872116537 48.213237573412485 4 2 0
185 62 2 0.4238 2.5379931107326397 2.9693571759875583 44.90184587572463 -1 -3 0
329 110 2 0.4238 0.209223193949164 3.224299925812789 44.62151809312724 -1 -2 0
179 60 2 0.4238 3.1602076684617435 8.07751736366016 45.035408190602496 -4 1 0
170 57 2 0.4238 3.670710701306 2.960413031506038 47.05908009234009 -3 3 0
310 104 2 0.4238 0.8294999394170074 14.97962311168739 46.003303703436906 -3 -2 0
171 57 3 -0.8476 3.496737614266949 3.7397039483245127 46.55734150938819 -3 3 0
312 104 3 -0.8476 1.4704277874733658 14.752231139646907 45.19522938481361 -3 -2 0
169 57 2 0.4238 4.435726701163493 3.8985502611248553 46.161862587117014 -3 3 0
127 43 2 0.4238 3.2363586659806334 0.2537659767204151 47.46460107243456 4 2 0
89 30 2 0.4238 2.636212426783926 4.986731775959426 47.96529285909727 2 -1 0
88 30 2 0.4238 3.0854183782695124 6.166710878430738 49.15638574311836 2 -1 0
177 59 3 -0.8476 6.195444182346442 4.021557263873817 45.488149234099104 2 3 0
175 59 2 0.4238 6.809868241671736 3.8391731366667208 46.20454319265422 2 3 0
90 30 3 -0.8476 2.3796888827589693 5.744491551156871 48.54765916182002 2 -1 0
123 41 3 -0.8476 1.8201707679766674 6.92088586466527 45.45381889766308 -1 -3 0
68 23 2 0.4238 4.938951052197752 1.6899706077767964 48.5088839368679 1 3 0
122 41 2 0.4238 1.0230826167227964 6.458502343537162 45.12377742642393 -1 -3 0
311 104 2 0.4238 1.6667482445688366 0.6658302238048938 44.876695298108665 -3 -1 0
499 167 2 0.4238 7.3391394033937205 4.812120045898814 47.74456876520064 -3 1 0
140 47 2 0.4238 1.1070481977808952 5.602959285366597 49.6871810477995 3 -3 0
117 39 3 -0.8476 14.02405112270266 3.646766035371141 47.67278469525028 -1 -1 0
116 39 2 0.4238 13.922317299038152 3.1915076006914083 46.7948324801207 -1 -1 0
176 59 2 0.4238 5.9993299060823615 3.1563798386321116 44.998026090096715 2 3 0
500 167 2 0.4238 7.164936669889042 6.103076368392576 46.9165593612784 -3 1 0
121 41 2 0.4238 2.1274808813101083 6.257593086767234 46.14318712860683 -1 -3 0
129 43 3 -0.8476 3.318004145988089 1.0932773009804 47.89397771136166 4 2 0
115 39 2 0.4238 14.617448120441923 3.0175359271748903 48.19724859190977 -1 -1 0
46 16 2 0.4238 14.569305822439725 5.139916160737189 44.098890339405145 -2 3 0
69 23 3 -0.8476 5.644571864749699 1.9952158691754531 49.17634834596873 1 3 0
393 131 3 -0.8476 1.0322376693551103 1.8666357097628474 48.94161704868908 -2 -2 0
536 179 2 0.4238 5.363015646921142 1.5333724525705912 43.351231835306386 -1 2 0
48 16 3 -0.8476 14.573631470577642 6.125913653747824 43.89956939891181 -2 3 0
373 125 2 0.4238 12.915194573565309 6.730498747768531 46.034339290114886 -5 0 0
306 102 3 -0.8476 7.778430137856601 3.0171732875833395 47.5869743317926 2 1 0
304 102 2 0.4238 7.236298803396857 2.557836536468216 48.20575195966318 2 1 0
305 102 2 0.4238 8.01569616896712 2.3520941784290557 46.877025367927786 2 1 0
243 81 3 -0.8476 12.026315499438605 0.33071292169492633 46.32373961361833 1 1 0
344 115 2 0.4238 13.784196318098017 0.12019151193670914 47.05002053049211 -6 -2 0
216 72 3 -0.8476 11.528767450078972 3.08440117825841 49.02088813728708 3 4 0
434 145 2 0.4238 9.128979493432945 5.375000718921588 48.083437713600965 -3 1 0
345 115 3 -0.8476 14.762370670330458 0.013391142090219077 47.19464582449167 -6 -2 0
343 115 2 0.4238 14.818674861137525 14.040167454886868 47.29835730525005 -6 -3 0
442 148 2 0.4238 7.439641484018141 1.6329161354392128 44.884771702460704 1 0 0
484 162 2 0.4238 10.600849359900355 6.964031721422144 49.35395689078409 -3 2 0
47 16 2 0.4238 13.90945834475063 6.483273031856716 44.44109092777434 -2 3 0
435 145 3 -0.8476 10.067306037962737 5.474127105599124 48.15576804686921 -3 1 0
433 145 2 0.4238 10.424450949266543 4.6808935430251655 48.65968220726682 -3 1 0
330 110 3 -0.8476 14.298481603684248 3.4840374380683308 44.92624288133861 -2 -2 0
444 148 3 -0.8476 8.251651829561206 1.5887908019914765 45.43965452256975 1 0 0
242 81 2 0.4238 11.85653661754785 14.578450333124417 45.63988419425965 1 0 0
302 101 2 0.4238 8.877268446822898 6.493000598947208 45.08193564498685 -1 3 0
419 140 2 0.4238 8.445110865306798 0.12222764397228089 49.437374952142584 -2 0 0
249 83 3 -0.8476 14.27801358151408 6.479799024267687 47.08030307610887 -3 0 0
443 148 2 0.4238 8.921601511100945 2.23584882518123 44.96449628373143 1 0 0
11 4 2 0.4238 12.319238486740804 5.199634584729878 50.52094611942192 1 0 0
247 83 2 0.4238 14.344584400580125 5.498104839111162 47.33916714159791 -3 0 0
303 101 3 -0.8476 7.9924439220124 7.014722785064035 45.33497499386641 -1 3 0
299 100 2 0.4238 10.901962147819027 2.904655117918531 44.18769612513385 -1 1 0
300 100 3 -0.8476 9.947260030159079 3.3206975835006296 44.246914973190584 -1 1 0
196 66 2 0.4238 10.345637858297385 5.067439836546766 44.48130540319867 0 3 0
475 159 2 0.4238 10.355455132911462 1.6473422622948317 48.534786490461585 2 -12 -1
477 159 3 -0.8476 10.038934902917646 0.7447939237827329 48.31700254064987 2 -12 -1
476 159 2 0.4238 10.774174932980362 0.2264803473149712 48.68308758100731 2 -12 -1
197 66 2 0.4238 10.958486342135869 6.3897738354790015 44.79300242067768 0 3 0
248 83 2 0.4238 14.248497963465505 6.940269490809093 47.97195939401281 -3 0 0
328 110 2 0.4238 13.601124656444828 2.9189077519860125 44.49790789734065 -2 -2 0
214 72 2 0.4238 12.448875328355475 3.111715314272945 48.63540098910132 3 4 0
198 66 3 -0.8476 10.158369510546827 6.012130762864969 44.3463300614258 0 3 0
241 81 2 0.4238 11.13652398211177 0.4789497303154121 46.75481646846705 1 1 0
14 5 2 0.4238 12.27000434385952 1.587032459625734 44.89137520166102 2 2 0
15 5 3 -0.8476 12.231133555083042 1.9932544978094586 44.03217344753871 2 2 0
50 17 2 0.4238 3.8703747551928545 10.283408873490222 51.61030993635117 -4 0 0
520 174 2 0.4238 2.5314544839584148 9.050117267923987 50.05793367775137 -4 1 0
51 17 3 -0.8476 4.139900650907635 9.494485662400688 51.17326368247015 -4 0 0
529 177 2 0.4238 2.242357992931802 12.734294538065583 48.39680371654866 -4 -2 0
335 112 2 0.4238 5.47219390411532 14.334383044561209 49.25016686231315 1 2 0
336 112 3 -0.8476 5.332863299734111 13.387717156697008 49.28150057261738 1 2 0
530 177 2 0.4238 3.5297630822638255 12.753408840896217 49.17708704170886 -4 -2 0
531 177 3 -0.8476 2.5854493410762034 12.71422661838336 49.303373490957576 -4 -2 0
49 17 2 0.4238 4.705044042931382 9.718996154001582 50.39009297102693 -4 0 0
250 84 2 0.4238 4.674691851674527 13.293920065317867 45.16522815121308 4 -3 0
238 80 2 0.4238 0.8798396764502183 8.205205597979704 46.60508185394679 -3 0 0
180 60 3 -0.8476 4.014767728222119 8.43875686317661 44.71649543017391 -4 1 0
334 112 2 0.4238 6.195935934283526 12.936007767368004 49.21383859956809 1 2 0
353 118 2 0.4238 2.6077145133027533 13.87988217780784 45.9518699925446 -1 -2 0
297 99 3 -0.8476 1.8514221741207308 10.89350340779969 45.66353119782841 3 6 0
296 99 2 0.4238 1.5483089781410169 10.885622442683061 44.70929565734559 3 6 0
352 118 2 0.4238 2.8577113071750913 12.398172282135382 46.288803181809854 -1 -2 0
354 118 3 -0.8476 3.2103456849311933 13.314167137482501 46.48139470967336 -1 -2 0
252 84 3 -0.8476 5.188355266637105 12.800840928175479 44.458273546765604 4 -3 0
295 99 2 0.4238 1.5019834643655665 10.04232702285248 46.024475455598555 3 6 0
468 156 3 -0.8476 14.953428670725556 12.369800794824458 47.24285759731242 0 -3 0
467 156 2 0.4238 0.3882947621393931 11.70523960740709 46.65727559250076 1 -3 0
240 80 3 -0.8476 0.7281318408532894 8.985793135287322 47.22131463171026 -3 0 0
239 80 2 0.4238 1.2121142300593477 8.716682559260066 48.075715530313126 -3 0 0
223 75 2 0.4238 5.33984296547754 11.103284871722398 45.96272470426438 0 -1 0
225 75 3 -0.8476 5.470092475513636 10.187629396487385 46.275983886041764 0 -1 0
224 75 2 0.4238 4.935750960660665 9.617350409573826 45.641361434517506 0 -1 0
251 84 2 0.4238 4.405095611959311 12.360904817322773 43.96555740798492 4 -3 0
466 156 2 0.4238 14.53971659346151 11.73935707758005 47.94922866418962 0 -3 0
17 6 2 0.4238 5.579008784682861 9.564926370895408 48.10380284006139 1 3 0
166 56 2 0.4238 6.8070568202622574 12.774806939773155 44.04360285877416 -2 1 0
18 6 3 -0.8476 6.031385427034846 9.677319584027165 48.94658739752621 1 3 0
351 117 3 -0.8476 10.58650013656841 10.762862853409267 44.239901834143616 -3 1 0
350 117 2 0.4238 9.987971145869311 10.488114285150955 43.52296672040047 -3 1 0
349 117 2 0.4238 10.149776209315208 10.453283172979452 45.110785060355326 -3 1 0
439 147 2 0.4238 11.750921585746623 12.578075380115372 43.99231310288128 -1 -3 0
147 49 3 -0.8476 13.866418481223349 10.96805923339211 49.41232297981764 2 1 0
143 48 2 0.4238 11.548735618766152 13.574902178456131 49.92017267390614 -1 -1 0
164 55 2 0.4238 12.49984631769782 8.381660543750812 48.906580757704816 -1 1 0
333 111 3 -0.8476 7.907588665282052 9.750512609286274 45.29579701231112 -1 1 0
41 14 2 0.4238 13.746205656628 9.034809619745559 46.71024390603186 -3 4 0
144 48 3 -0.8476 12.270650383378221 13.899838376312442 49.27601144907621 -1 -1 0
485 162 2 0.4238 10.43362089193771 8.228970493264326 50.24537356081951 -3 2 0
486 162 3 -0.8476 10.754026437992142 7.990216336088074 49.37734392923899 -3 2 0
163 55 2 0.4238 13.31425833575675 7.837104058487579 50.10234825004896 -1 1 0
375 125 3 -0.8476 12.439042253116792 7.048127990360536 45.25724634146352 -5 0 0
203 68 2 0.4238 12.245809708167974 12.66171811882646 48.01043322083129 1 -9 0
145 49 2 0.4238 14.009152124549603 10.008959605246103 49.22911780989942 2 1 0
204 68 3 -0.8476 11.935029334609624 11.973585870006325 47.338357606879114 1 -9 0
374 125 2 0.4238 12.41405652762667 8.026362371566174 45.386106109941196 -5 0 0
42 14 3 -0.8476 13.222515395218853 9.62385979529568 46.17393459375522 -3 4 0
202 68 2 0.4238 11.716293329073451 12.44617667872593 46.569371623164905 1 -9 0
16 6 2 0.4238 6.508967760411746 8.860312405337515 49.132738513243304 1 3 0
301 101 2 0.4238 8.148697869613851 7.988216314940077 45.061080026356095 -1 3 0
130 44 2 0.4238 8.624634132190149 13.201742996925827 47.67636758468868 3 2 0
331 111 2 0.4238 6.990823727591592 9.806025793320858 45.69000197340445 -1 1 0
40 14 2 0.4238 12.776096486967315 10.253869989196001 46.781128759121486 -3 4 0
167 56 2 0.4238 7.88542933814311 11.72272767964227 44.12357539607113 -2 1 0
168 56 3 -0.8476 7.792314680955877 12.620373687619647 43.9508577705873 -2 1 0
449 150 2 0.4238 9.116639216230476 14.54405050024044 46.22193143954321 4 3 0
450 150 3 -0.8476 9.582789308686058 13.697902699284748 46.09293273483286 4 3 0
332 111 2 0.4238 8.55315382474856 9.60745228712978 46.03030298072444 -1 1 0
423 141 3 -0.8476 9.83158385025559 9.93849340730355 47.243157992282896 2 -1 0
422 141 2 0.4238 10.072773687072853 9.159519185602122 47.83936368984386 2 -1 0
421 141 2 0.4238 10.473398283667555 10.607366831643507 47.55632125345193 2 -1 0
131 44 2 0.4238 8.58137928010039 11.878843193131797 48.37537064334012 3 2 0
132 44 3 -0.8476 8.43815794932556 12.830668733905043 48.58485620703429 3 2 0
165 55 3 -0.8476 13.439218676857081 8.245642782262532 49.2281756150233 -1 1 0
448 150 2 0.4238 9.108878672919149 13.26237378161602 45.27815633755018 4 3 0
445 149 2 0.4238 5.236317652545717 7.266968808913684 53.900489882353895 -1 2 0
463 155 2 0.4238 5.468110822097885 0.937239034142127 52.65966048202727 3 2 0
283 95 2 0.4238 0.5981330130815377 0.9316814915067455 53.53873953105216 0 0 0
208 70 2 0.4238 2.6542444030786543 7.401907982176211 53.85771343299151 -3 -2 0
521 174 2 0.4238 1.4745589501304088 7.820673128394552 50.03014684027111 -4 1 0
141 47 3 -0.8476 0.6421689598376565 5.743276003171546 50.56291222064554 3 -3 0
496 166 2 0.4238 7.112062858581156 6.070601372042595 49.43937431332794 3 2 0
321 107 3 -0.8476 3.2213370340957286 2.132565675994472 53.982607135589184 4 5 0
320 107 2 0.4238 3.360344983462016 2.9826625690254334 54.43360323042058 4 5 0
464 155 2 0.4238 4.322063057348814 0.514975933242613 51.625207557017944 3 2 0
465 155 3 -0.8476 4.957821372964279 1.2317949502173533 51.84487740560858 3 2 0
210 70 3 -0.8476 2.682910786738336 6.52292894075836 53.46587227327148 -3 -2 0
266 89 2 0.4238 6.599148931574114 3.207857751113087 51.76449552975967 -1 -2 0
267 89 3 -0.8476 7.482294666711458 3.6047955213592022 51.59389391010486 -1 -2 0
67 23 2 0.4238 5.247951671139941 1.9779226716314422 50.06518916625714 1 3 0
209 70 2 0.4238 2.9314842597906448 6.673121225377462 52.54457353271414 -3 -2 0
319 107 2 0.4238 4.022114699499028 1.9036811021254434 53.39149151989993 4 5 0
392 131 2 0.4238 1.1746521404520238 1.8993133271666276 49.93570422534398 -2 -2 0
286 96 2 0.4238 8.912632502040136 2.7437263741412896 55.369823058099705 0 3 0
437 146 2 0.4238 4.09037296349972 7.529026169412508 50.90052638535437 -2 1 0
438 146 3 -0.8476 4.093078419880631 6.57225277157296 50.56116748182187 -2 1 0
436 146 2 0.4238 5.055741807415204 6.406655543398132 50.58974246012867 -2 1 0
139 47 2 0.4238 1.2727931064720024 5.328649451793245 51.24603689596427 3 -3 0
288 96 3 -0.8476 8.765882202543816 2.807598695421327 54.396081203582156 0 3 0
287 96 2 0.4238 9.151028894454498 3.666632218520831 54.092186493521275 0 3 0
497 166 2 0.4238 7.442146000078725 6.532051934728815 50.845206107404486 3 2 0
498 166 3 -0.8476 6.728118719492944 6.124875009591099 50.393921824075456 3 2 0
309 103 3 -0.8476 1.674138644813885 3.043382611556461 51.51977392835981 5 2 0
391 131 2 0.4238 0.5061792242750757 1.0888052342243282 48.71277427586943 -2 -2 0
308 103 2 0.4238 2.520687201827782 2.8120973893337604 51.95223653964668 5 2 0
307 103 2 0.4238 1.0524711995058935 2.9347290312927767 52.26789324605847 5 2 0
265 89 2 0.4238 7.288635110428214 4.372276036489506 51.109566914614156 -1 -2 0
362 121 2 0.4238 8.142105456598204 2.2987195506315836 57.71202146611449 -2 0 0
408 136 3 -0.8476 14.260754658119675 5.730891593928093 54.166306033579495 1 -3 0
406 136 2 0.4238 0.18412910219452705 6.06386773852842 53.982262593992914 2 -3 0
263 88 2 0.4238 12.162864256484088 3.051954955677434 56.716076952859076 -2 3 0
258 86 3 -0.8476 14.523270748808942 2.78927320531907 53.40671533058143 -2 -1 0
161 54 2 0.4238 9.547823785510122 6.036698249936815 53.3656755513784 0 2 0
291 97 3 -0.8476 10.26788945472084 3.409361787484406 51.46346895022802 0 1 0
264 88 3 -0.8476 12.627318865367007 2.2427718766306435 56.661479470561815 -2 3 0
290 97 2 0.4238 10.338082914221317 4.162440980042018 52.09156568816968 0 1 0
200 67 2 0.4238 7.737089547983427 7.413994489275294 53.26457003742513 0 3 0
201 67 3 -0.8476 8.355828712490561 7.383193094565472 52.51699543760618 0 3 0
157 53 2 0.4238 9.35792414759428 0.4897149693042001 52.33844031178814 0 0 0
215 72 2 0.4238 11.635289717188162 3.0685466694187524 50.02537584176454 3 4 0
10 4 2 0.4238 13.870741591275182 5.613434788959424 50.96174283159523 1 0 0
517 173 2 0.4238 14.756274108965698 5.881086766107468 56.06008988034966 2 -1 0
418 140 2 0.4238 7.442995559819405 1.015842097036343 50.16584775952867 -2 0 0