LAMMPS data file via write_data, version 28 Mar 2023, timestep = 50000, units = metal

543 atoms
3 atom types

0 15 xlo xhi
0 15 ylo yhi
0 100 zlo zhi

Masses

1 12.0107
2 2.00000
3 15.9994

Atoms # full/kk

6 2 3 -0.8476 0.455474370900021 7.072946841671206 35.72754153358887 -4 0 0
494 165 2 0.4238 7.608208271636046 2.761446181834621 37.417773484341986 -2 2 0
5 2 2 0.4238 1.4024057922514324 7.295795795525641 35.755754058107925 -4 0 0
455 152 2 0.4238 3.8599837057928625 7.313750810740779 36.35276929888462 0 2 0
220 74 2 0.4238 3.755443099401135 2.5838398035481513 36.565717176760145 0 0 0
466 156 2 0.4238 7.305230773410475 0.4511057402114609 37.16879202123803 1 -2 0
468 156 3 -0.8476 6.4513835201458765 0.15195127822120413 37.384204385935355 1 -2 0
509 170 2 0.4238 1.099065086438664 5.763815157289252 37.48179754440938 0 1 0
456 152 3 -0.8476 3.1041811930688237 7.740694032478366 36.78580882967759 0 2 0
221 74 2 0.4238 3.04639060038901 3.6660287634072994 37.50947133676914 0 0 0
510 170 3 -0.8476 1.4164757853282888 4.828918498730261 37.74324567795098 0 1 0
222 74 3 -0.8476 3.547459528768023 2.8328796438519284 37.530502340020476 0 0 0
425 142 2 0.4238 11.556277144064182 3.9460104190156966 31.71850404391506 0 4 0
426 142 3 -0.8476 11.470034278068246 4.063476551794272 32.67029170486501 0 4 0
197 66 2 0.4238 12.850215872684169 5.912750091110672 34.729905702060904 0 2 0
4 2 2 0.4238 0.2722329317492233 6.703634148923569 34.891224953543855 -4 0 0
424 142 2 0.4238 12.311604814355281 4.357873559793338 33.04606560298459 0 4 0
493 165 2 0.4238 9.00265852334224 2.693503086803884 36.58270718452357 -2 2 0
495 165 3 -0.8476 8.41662843600787 2.219664800066334 37.24408013855747 -2 2 0
198 66 3 -0.8476 13.42334234399668 5.395587459948935 34.2123534440913 0 2 0
196 66 2 0.4238 13.64924642285226 4.576177336421352 34.74411523061769 0 2 0
505 169 2 0.4238 11.367958111612129 3.0314072088510366 36.414919483896114 -2 -4 0
386 129 2 0.4238 11.474015270912725 5.357062141497195 36.275306596376694 -2 -2 0
506 169 2 0.4238 10.945307692916002 3.4201677724101476 35.02144975270389 -2 -4 0
507 169 3 -0.8476 10.673197679360946 3.5999081733286604 35.9690736427498 -2 -4 0
412 138 2 0.4238 9.552698472233542 2.2934822635055507 38.83055395442457 -2 1 0
57 19 3 -0.8476 14.365981970736469 3.3035566244766392 36.15379596984086 -1 4 0
56 19 2 0.4238 14.791775264141606 3.7186484529939783 36.939580710338255 -1 4 0
55 19 2 0.4238 13.824965391604914 2.6109212047570174 36.463902796689375 -1 4 0
101 34 2 0.4238 6.426200071383822 9.540183043024692 37.17194678180539 -1 5 0
102 34 3 -0.8476 7.063648791149945 9.175370185434547 36.50327656692931 -1 5 0
103 35 2 0.4238 14.754144345280237 8.719041534053561 37.032811479055425 -3 1 0
467 156 2 0.4238 5.851830683403454 0.012856852021233323 36.66013897441533 1 -2 0
86 29 2 0.4238 4.0796411225787335 13.892039529482615 36.00105120008081 4 3 0
85 29 2 0.4238 5.223776264431208 13.20133674249224 35.06255522481764 4 3 0
87 29 3 -0.8476 4.716538472355208 14.076833389821134 35.349173796655116 4 3 0
100 34 2 0.4238 7.762154275601539 9.864902317343756 36.49902137320689 -1 5 0
419 140 2 0.4238 3.260211267504901 1.9829024063974048 34.40735352996179 -1 0 0
271 91 2 0.4238 8.820730059638178 11.52867628781373 37.25165928888904 2 0 0
77 26 2 0.4238 11.475860025347812 8.343156628575532 36.90089924438559 -3 0 0
76 26 2 0.4238 12.575716788289244 9.328023417918327 37.334440789460295 -3 0 0
305 102 2 0.4238 6.019997664614582 10.838753136499939 34.77294984089991 1 0 0
306 102 3 -0.8476 6.25817125892402 11.764094453238176 34.75820481747115 1 0 0
304 102 2 0.4238 7.039037984811048 11.822740662227229 35.422686747407944 1 0 0
273 91 3 -0.8476 9.112789102804676 11.373823597075441 36.30600730631007 2 0 0
78 26 3 -0.8476 11.596282401299515 9.250322912363082 37.27420512431415 -3 0 0
272 91 2 0.4238 10.013801229960462 10.960170541076037 36.43428533629022 2 0 0
218 73 2 0.4238 12.275128368106245 12.868354963758579 37.285311106093225 2 5 0
169 57 2 0.4238 3.0566368423624937 1.6890482753051146 43.72077337625226 -4 3 0
154 52 2 0.4238 3.2784366704773906 4.056363659009729 44.07737899336356 2 -5 0
463 155 2 0.4238 0.5115269713294683 6.44769221349578 43.70286408419663 3 1 0
329 110 2 0.4238 2.7853942800622273 6.757668292756791 42.892922606795345 -1 -2 0
368 123 2 0.4238 5.367641903591067 3.365873583664732 38.03757327491811 -2 3 0
369 123 3 -0.8476 6.260683916347486 3.5629158967022145 38.46128055050786 -2 3 0
420 140 3 -0.8476 4.12023412970203 2.04167802139562 34.869215487363 -1 0 0
367 123 2 0.4238 6.177333211782584 4.564062546509661 38.558717523335744 -2 3 0
454 152 2 0.4238 3.442867086064632 8.521641146722299 37.292748181535565 0 2 0
170 57 2 0.4238 3.430926713613052 0.7785306657015594 42.5755676998014 -4 3 0
373 125 2 0.4238 6.524100301358782 6.849153195790065 37.75831894712832 -4 0 0
375 125 3 -0.8476 5.670624161229131 6.345321023907476 37.78405946331798 -4 0 0
508 170 2 0.4238 1.2242264433467782 4.98093451331705 38.65609453339452 0 1 0
171 57 3 -0.8476 2.9249095944324055 0.7775810615794404 43.38058045679794 -4 3 0
176 59 2 0.4238 5.612407623371747 1.1240543640905554 41.39325328043447 2 3 0
14 5 2 0.4238 3.1731912212410993 3.4571520676091643 41.03905995088175 3 2 0
13 5 2 0.4238 4.64787008216551 3.864364434067216 41.39655286759239 3 2 0
15 5 3 -0.8476 3.7773244114702487 4.1777013753992955 41.42632826469633 3 2 0
312 104 3 -0.8476 6.5285860989545155 2.5894361455298576 40.9399448392754 -4 -1 0
464 155 2 0.4238 0.6215296404833858 5.061645384840469 43.23588463273285 3 1 0
465 155 3 -0.8476 1.2474784834127621 5.757794710352185 43.5936364476375 3 1 0
114 38 3 -0.8476 0.7333188759412296 5.628877041102388 40.19797796674117 4 0 0
310 104 2 0.4238 6.577666254328422 2.83042820485344 39.949361516193136 -4 -1 0
47 16 2 0.4238 5.0901878304594534 7.153206444303212 40.896199242772546 -1 3 0
453 151 3 -0.8476 2.3343744065648755 2.0985466887935833 40.08283346518166 -2 0 0
452 151 2 0.4238 1.3799897732636623 1.9360364636363059 40.0112859144255 -2 0 0
451 151 2 0.4238 2.6148611649976483 2.252087213811369 39.17344025183774 -2 0 0
374 125 2 0.4238 5.205916638358134 6.673219643966564 38.60991343786501 -4 0 0
48 16 3 -0.8476 4.61202728317472 6.643635960599383 40.18900084421924 -1 3 0
46 16 2 0.4238 4.234357518279411 5.783971050109873 40.66336696198658 -1 3 0
113 38 2 0.4238 1.4869683723713247 5.745892372078537 40.7770849144629 4 0 0
311 104 2 0.4238 7.439731559904328 2.829601932808475 41.29610413582212 -4 -1 0
191 64 2 0.4238 0.12702574431296826 7.372661382894601 40.56253509925703 -1 -1 0
502 168 2 0.4238 9.358624044102474 0.24448084012369437 42.113160901688325 0 -1 0
504 168 3 -0.8476 9.171187543285548 14.793606376053841 41.27777433114562 0 -2 0
440 147 2 0.4238 11.348916672418172 1.3980280101787503 37.836976507344254 0 -2 0
441 147 3 -0.8476 12.295371392820229 1.370209941593538 37.56633324646139 0 -2 0
414 138 3 -0.8476 10.28513528658517 2.075546329193755 39.424615122431675 -2 1 0
112 38 2 0.4238 0.13619038110440518 4.972661615240882 40.62513579164542 4 0 0
409 137 2 0.4238 14.48950786797397 1.0665425927093968 39.99903168577586 2 0 0
279 93 3 -0.8476 10.485322943426679 7.874917550418834 42.12622285255403 -2 -1 0
45 15 3 -0.8476 9.630862597888314 0.468530815968974 43.99983738278679 1 2 0
413 138 2 0.4238 9.931792209533636 1.3344158502526848 39.94605357567607 -2 1 0
278 93 2 0.4238 10.984252238152983 7.809844692899209 41.28431588928838 -2 -1 0
439 147 2 0.4238 12.844583636626124 1.6475797867718955 38.33027271626543 0 -2 0
151 51 2 0.4238 11.61799547599636 6.021670111171263 40.03323838039018 -1 1 0
153 51 3 -0.8476 11.794823093346444 7.000284617537595 39.83375516672418 -1 1 0
64 22 2 0.4238 14.3725285971877 3.3359160160696746 42.316579873288234 -2 0 0
40 14 2 0.4238 9.011364775973696 7.389229083067458 41.151852642992345 -2 4 0
380 127 2 0.4238 9.593566663109689 6.744565385519193 37.63773296493227 1 -3 0
385 129 2 0.4238 11.854353201273641 6.329430911111893 37.45162500093168 -2 -2 0
43 15 2 0.4238 8.927926602226057 0.6912093848403159 44.70839718759213 1 2 0
66 22 3 -0.8476 14.047236300724812 3.8545096759394024 41.539942601684594 -2 0 0
65 22 2 0.4238 13.126508256376615 4.034878513378484 41.60377597550386 -2 0 0
360 120 3 -0.8476 11.396342559582612 4.325703693090927 40.49844142366381 0 2 0
358 120 2 0.4238 11.098419256168963 3.51627869535952 40.01033400901308 0 2 0
359 120 2 0.4238 10.6375514215953 4.344295817326012 41.120537976290514 0 2 0
410 137 2 0.4238 14.272756346453455 2.6417810797493533 40.194575928271746 2 0 0
41 14 2 0.4238 8.418628490223812 7.276871466884108 39.73530856329965 -2 4 0
411 137 3 -0.8476 14.40812015640658 1.9518261414480482 39.521450024696556 2 0 0
42 14 3 -0.8476 8.2386858417744 7.067874447038081 40.66379961578543 -2 4 0
152 51 2 0.4238 12.717072573874784 7.2355657708416805 40.12390560698777 -1 1 0
107 36 2 0.4238 9.122503639116685 4.292097016131438 42.646048784561 -4 0 0
106 36 2 0.4238 8.624900359621675 5.1781056007063295 41.39615279332149 -4 0 0
108 36 3 -0.8476 8.979045335528854 4.300416281336075 41.63530926753721 -4 0 0
480 160 3 -0.8476 7.363493355368371 11.567224424970163 44.88927920998927 -4 3 0
399 133 3 -0.8476 5.525312391948499 10.526790011873484 38.27679715197202 -6 -1 0
346 116 2 0.4238 3.6467536722547873 12.947001276575266 41.331880288343676 -1 -1 0
51 17 3 -0.8476 2.606806030989307 14.04216472078946 39.84166823794256 -4 0 0
49 17 2 0.4238 2.585718680363079 0.01551200990620777 40.007918709105425 -4 1 0
396 132 3 -0.8476 3.406677124191769 9.081204307328186 39.45039448118378 -1 -3 0
347 116 2 0.4238 4.078712437925076 12.984815778865858 42.79609129231975 -1 -1 0
394 132 2 0.4238 3.6581551887809582 8.12570495687386 39.613991322588284 -1 -3 0
395 132 2 0.4238 2.9060775304195454 9.357101966847981 40.29730225609214 -1 -3 0
484 162 2 0.4238 2.71724562133237 9.366924584442774 42.7313371756731 -2 1 0
193 65 2 0.4238 3.5459115152238154 13.036465500739885 38.38185826549887 -4 1 0
301 101 2 0.4238 0.8954201656059494 11.188654743047946 42.23911272413219 0 3 0
486 162 3 -0.8476 2.34290506164841 10.20731754668392 42.29707254392207 -2 1 0
485 162 2 0.4238 3.028154858098444 10.907370847018251 42.27885446640897 -2 1 0
471 157 3 -0.8476 6.116626061759248 8.07067941625195 42.36169327426505 3 1 0
323 108 2 0.4238 6.170690337699197 10.934415715615604 40.63422555465429 -1 5 0
348 116 3 -0.8476 3.977039191318057 12.42035449982451 42.04474162074071 -1 -1 0
195 65 3 -0.8476 3.5856177004247214 12.443412469168479 37.62433393233813 -4 1 0
322 108 2 0.4238 5.139804251049114 10.994601463214787 41.83153369380109 -1 5 0
470 157 2 0.4238 6.119538841103901 8.936520980585307 41.95069594782417 3 1 0
50 17 2 0.4238 1.6835830369811258 13.845303197824109 39.65404715630695 -4 0 0
177 59 3 -0.8476 5.010359614141877 0.31402326540408587 41.42932438564068 2 3 0
397 133 2 0.4238 4.868290340883615 11.215509338641954 37.84270115993236 -6 -1 0
398 133 2 0.4238 4.790641226749362 9.983790520424256 38.71533323347426 -6 -1 0
148 50 2 0.4238 6.761395884036587 14.236878964731764 38.75492406383007 1 -2 0
150 50 3 -0.8476 6.950667802006984 13.906575750907512 39.70723253316771 1 -2 0
343 115 2 0.4238 14.86646625218318 13.636709340100785 40.80374416569636 -6 -3 0
345 115 3 -0.8476 14.828931013516206 14.12911231720148 39.879223721574085 -6 -3 0
330 110 3 -0.8476 3.1444946747725213 7.6534325488242585 42.78263073938909 -1 -2 0
194 65 2 0.4238 2.6349676165986584 12.0163223327784 37.7277315151582 -4 1 0
166 56 2 0.4238 0.36859570844791156 10.85451899163243 38.18980096920142 -1 1 0
105 35 3 -0.8476 14.432110995479709 9.379141839570783 37.64422596119611 -3 1 0
418 140 2 0.4238 4.511174618401664 1.159438674841452 34.75988010691242 -1 0 0
469 157 2 0.4238 6.881097515908356 7.683412130299861 41.81859934869317 3 1 0
328 110 2 0.4238 4.143591084010521 7.572416455639214 42.66244377380335 -1 -2 0
324 108 3 -0.8476 6.047723819939571 10.65082761592111 41.57419752880416 -1 5 0
168 56 3 -0.8476 0.7866641740152088 11.758115097025618 38.25629237941951 -1 1 0
104 35 2 0.4238 14.447496371076827 9.037183072122408 38.56451534448749 -3 1 0
175 59 2 0.4238 5.406872379678268 14.627002801824982 40.90666088663943 2 2 0
167 56 2 0.4238 0.38658730815981046 12.01749367211172 37.41983330202668 -1 1 0
89 30 2 0.4238 7.984356857640238 12.04771014314902 41.6433825247049 1 -1 0
478 160 2 0.4238 7.714542182219099 11.712278478831259 43.965864674735975 -4 3 0
90 30 3 -0.8476 8.700588590294956 12.155689362809024 42.268309984418444 1 -1 0
302 101 2 0.4238 0.004120840594763919 11.899778930638094 43.19151096461648 0 3 0
88 30 2 0.4238 8.886543616469433 13.115701271027616 42.20438786771837 1 -1 0
344 115 2 0.4238 14.154719966271276 13.655534335041715 39.40113512882296 -6 -3 0
351 117 3 -0.8476 10.761842677166129 11.0845463629763 43.55206021003611 -2 1 0
349 117 2 0.4238 11.590827336125036 10.943147018274088 42.98625599221187 -2 1 0
35 12 2 0.4238 10.915094654538 9.95584410831446 38.88249931684232 -2 1 0
36 12 3 -0.8476 10.630927214650217 10.647502930745121 39.54253276573105 -2 1 0
34 12 2 0.4238 9.745868566142393 10.872586806398557 39.28067083541671 -2 1 0
350 117 2 0.4238 10.140240550644645 11.419218697820307 42.90440300819185 -2 1 0
20 7 2 0.4238 13.730654780636907 10.782239641292797 42.01348156540391 0 2 0
487 163 2 0.4238 12.028130925994883 13.512596841795244 39.69076639466525 0 0 0
489 163 3 -0.8476 11.622795465404213 13.303716294130936 40.5641761593691 0 0 0
488 163 2 0.4238 11.458405605462481 12.367402114985014 40.396491699389685 0 0 0
402 134 3 -0.8476 8.112970859889634 11.559248350569925 38.89574271559338 -2 -1 0
400 134 2 0.4238 7.306032004959161 11.00700221593141 38.73593848417826 -2 -1 0
212 71 2 0.4238 13.332530959529016 8.565355787798365 42.90845178374248 1 2 0
401 134 2 0.4238 7.885871386348366 12.447072362907853 39.207875581558284 -2 -1 0
149 50 2 0.4238 7.720660911933706 14.41528505300713 40.06006688457685 1 -2 0
503 168 2 0.4238 10.056206096093534 14.29761147019794 40.995108736266054 0 -2 0
21 7 3 -0.8476 12.979126117809075 10.140002036442278 41.89657318591986 0 2 0
19 7 2 0.4238 12.67610586700804 10.305406333850533 40.9912930429525 0 2 0
303 101 3 -0.8476 0.06347758654122566 11.78515055615488 42.234866907212755 0 3 0
379 127 2 0.4238 8.398757249400001 7.788964649037547 37.34180904940694 1 -3 0
44 15 2 0.4238 9.912498256618978 14.533464941301439 44.31935710118325 1 1 0
190 64 2 0.4238 14.876600178956796 8.86296950036319 40.98808664620326 -2 -1 0
387 129 3 -0.8476 11.58224458179808 6.352366976807333 36.507472282122066 -2 -2 0
219 73 3 -0.8476 12.793433065907642 13.570514055039254 37.67540176745359 2 5 0
217 73 2 0.4238 12.48970254361552 14.456517331414094 37.428908771452924 2 5 0
277 93 2 0.4238 10.251837148854587 8.788217919629767 42.178473142876236 -2 -1 0
381 127 3 -0.8476 8.755146080290233 7.13149848089522 37.97376589976321 1 -3 0
192 64 3 -0.8476 14.68733635155601 8.221604683824186 40.255053593497465 -2 -1 0
179 60 2 0.4238 2.454201592535738 8.143312188702994 49.559338590555136 -4 0 0
281 94 2 0.4238 0.12005376090683298 0.45157634214574605 47.4769907785392 2 4 0
535 179 2 0.4238 3.6704129707223894 6.179092390954868 45.46734674984701 0 2 0
537 179 3 -0.8476 3.0608041229953704 6.827653950093557 45.95112108736534 0 2 0
536 179 2 0.4238 2.229729977901325 6.868300445458053 45.50574164731952 0 2 0
252 84 3 -0.8476 7.027276866085151 3.624931685543803 49.42638046681676 4 -2 0
224 75 2 0.4238 4.444256362821026 6.790451754651545 48.808786240662606 0 -1 0
225 75 3 -0.8476 5.2962954624883825 6.649893533843515 49.30966876098996 0 -1 0
137 46 2 0.4238 3.827701727169288 0.32957660320278775 49.432812149861356 -2 1 0
141 47 3 -0.8476 2.15203755059709 3.7404740064636948 47.82656353366241 3 -3 0
139 47 2 0.4238 2.536791969566506 4.144871679775213 47.03204726983117 3 -3 0
542 181 2 0.4238 7.289590794925416 2.74283177455315 46.517430087513816 0 -3 0
253 85 2 0.4238 0.45639631803658626 2.892952565459465 47.86136822232135 -2 1 0
140 47 2 0.4238 2.066944596984057 4.361970619784042 48.55586220317714 3 -3 0
541 181 2 0.4238 5.785294047629069 2.6194171404610525 46.681575048490934 0 -3 0
206 69 2 0.4238 3.6567832697702345 2.378312658990506 45.883697230424566 -3 1 0
543 181 3 -0.8476 6.520205861006884 3.3013303529566276 46.73113588291494 0 -3 0
207 69 3 -0.8476 4.248525427256322 1.9382246608859979 46.57521280799397 -3 1 0
155 52 2 0.4238 1.8695741027607935 3.3075719724532417 44.305261139935354 2 -5 0
205 69 2 0.4238 4.1163529143003155 0.966213927478927 46.60609175312618 -3 1 0
7 3 2 0.4238 5.788215510174619 5.84806045912754 45.576436933413845 -4 -2 0
250 84 2 0.4238 6.937432830544346 3.5595744125966697 48.43417208936565 4 -2 0
185 62 2 0.4238 0.24553391722582354 2.1790977292645746 43.56093113150697 -1 -3 0
9 3 3 -0.8476 5.142313184054086 5.400585152230542 44.973443423214434 -4 -2 0
255 85 3 -0.8476 14.65347433179091 2.341087917288918 48.0424928783027 -3 1 0
116 39 2 0.4238 6.926122623527992 0.10449364376120246 45.195534085207655 -1 -1 0
156 52 3 -0.8476 2.906966302780433 3.2803220914306888 44.571028746640735 2 -5 0
8 3 2 0.4238 5.597238562706405 4.5105840806891955 44.988913620313056 -4 -2 0
80 27 2 0.4238 6.685988858029529 7.027160873786642 48.622641280460385 -4 -3 0
266 89 2 0.4238 0.4509418535424395 6.241801037319973 47.78276519458922 -1 -2 0
265 89 2 0.4238 0.09569497128744509 7.223868250994693 46.53180809328214 -1 -2 0
251 84 2 0.4238 7.700109873190127 4.3967960931792245 49.50032706194282 4 -2 0
267 89 3 -0.8476 14.732753145628237 6.477171419301639 47.1803373031822 -2 -2 0
261 87 3 -0.8476 11.807441535951414 14.532790984443382 49.234447683975354 -3 -2 0
159 53 3 -0.8476 8.789402458536587 1.3457055552552462 49.86074554294824 -1 0 0
254 85 2 0.4238 14.010349482381292 2.8063275102211014 47.506821461605014 -3 1 0
81 27 3 -0.8476 7.567888228882092 7.226438289736923 48.229434234956145 -4 -3 0
79 27 2 0.4238 8.2092675089491 7.0165670762400305 48.89357392472373 -4 -3 0
157 53 2 0.4238 8.310793686952309 2.17712682831931 49.80302167111689 -1 0 0
186 62 3 -0.8476 0.30135956765311844 3.119497919890675 43.79988115289074 -1 -3 0
184 62 2 0.4238 14.75446841993034 3.2712323031093358 44.67112583884093 -2 -3 0
233 78 2 0.4238 11.353186191479445 2.800656659807713 48.499023190305266 -4 6 0
234 78 3 -0.8476 11.16316763633067 1.970883298419346 48.00080243485339 -4 6 0
232 78 2 0.4238 11.308265260221809 2.2453206262079544 47.05543443139875 -4 6 0
231 77 3 -0.8476 10.838264023802347 6.064328297529936 46.89503440238938 -1 -1 0
211 71 2 0.4238 13.061832011571571 7.359469281698981 43.72907111914947 1 2 0
54 18 3 -0.8476 10.936745402616609 4.411694284614105 49.197256495383634 0 4 0
158 53 2 0.4238 9.517859715914659 1.5309706950171913 49.188657457162535 -1 0 0
133 45 2 0.4238 7.77757380994279 6.674497721198649 46.52893331437585 -2 0 0
117 39 3 -0.8476 7.564804339182119 0.6317582543161938 45.70884297104469 -1 -1 0
134 45 2 0.4238 7.847562796270595 7.367406605060065 45.2475145061928 -2 0 0
67 23 2 0.4238 10.923671506470171 1.7694279328992002 44.71581320041718 0 3 0
511 171 2 0.4238 11.012211352832491 6.489167490093403 43.66936332150744 -5 -3 0
68 23 2 0.4238 12.41780033255983 1.718621516469848 45.06276601729691 0 3 0
513 171 3 -0.8476 11.651487884240252 6.114211256055066 44.33073544012484 -5 -3 0
69 23 3 -0.8476 11.60901188119888 2.3508978308560105 45.06570771656023 0 3 0
296 99 2 0.4238 14.24102660748141 4.8934345306828195 46.136950103260936 2 6 0
297 99 3 -0.8476 13.742990154449693 4.0432425711487765 45.845123406944076 2 6 0
230 77 2 0.4238 9.993799104077171 6.39634073602951 46.5032250407242 -1 -1 0
135 45 3 -0.8476 8.155537110929178 6.464532474554182 45.573909051245494 -2 0 0
524 175 2 0.4238 9.806134095155144 4.3074747266959 44.934906361618665 2 -6 0
523 175 2 0.4238 8.485077884059361 5.037806405355943 44.82830401306276 2 -6 0
229 77 2 0.4238 11.316278230201947 6.815722783810176 47.432602312540574 -1 -1 0
512 171 2 0.4238 11.341865793689367 6.1258840642622845 45.2469842240995 -5 -3 0
115 39 2 0.4238 7.554105510682491 0.16407029162599077 46.59240426191145 -1 -1 0
295 99 2 0.4238 12.919483883865782 4.273481300261052 45.43510688890561 2 6 0
259 87 2 0.4238 11.767813605968765 0.3675598723093468 48.73849111223772 -3 -1 0
53 18 2 0.4238 11.109622358957461 5.094655351659915 48.47602934798568 0 4 0
525 175 3 -0.8476 8.9461560488757 4.264716136434669 44.43930155870286 2 -6 0
332 111 2 0.4238 6.66279298789736 8.372624110303194 43.99746619443479 0 1 0
178 60 2 0.4238 2.2417906818595386 7.48948185656171 48.16289551349014 -4 0 0
180 60 3 -0.8476 2.7715709075882033 7.455888897647161 48.93729441466463 -4 0 0
284 95 2 0.4238 3.4312081037672115 13.923933970598396 47.40578848461974 0 -1 0
285 95 3 -0.8476 3.2001986773877276 14.358403626527716 46.56979430601071 0 -1 0
242 81 2 0.4238 7.130188613666111 9.136339013458532 47.651322061064874 2 0 0
243 81 3 -0.8476 7.185297103963821 10.080591928492742 47.59542934457988 2 0 0
283 95 2 0.4238 2.2227081797463426 14.467214467994797 46.76644742035879 0 -1 0
71 24 2 0.4238 3.687847026733396 11.083943985098765 45.280462594582495 -2 2 0
405 135 3 -0.8476 4.590740772148336 13.579165090703194 48.96369400488583 -1 1 0
479 160 2 0.4238 6.7028042906820415 12.280970430210846 44.96221024266452 -4 3 0
173 58 2 0.4238 3.710001090148799 8.520710847224901 45.85237302485787 1 -2 0
172 58 2 0.4238 5.189693241130339 9.278718601663925 45.7762785295363 1 -2 0
174 58 3 -0.8476 4.2492379138930945 9.39484017396091 46.078565464772595 1 -2 0
72 24 3 -0.8476 3.119739271941059 11.85186887698408 45.081844387655174 -2 2 0
274 92 2 0.4238 5.747218252794382 14.6226680512666 43.24483095955293 4 -5 0
70 24 2 0.4238 3.4182016968650473 12.582146112954973 45.60487136672453 -2 2 0
403 135 2 0.4238 4.247542037080485 12.616205313948473 48.808293486371845 -1 1 0
404 135 2 0.4238 5.424947060035051 13.609849268262604 48.51340491353874 -1 1 0
241 81 2 0.4238 6.730947655905277 10.305902975017254 48.45197331393967 2 0 0
333 111 3 -0.8476 6.847742738452028 8.654751576454192 44.99930618732123 0 1 0
62 21 2 0.4238 0.5758523177328058 9.118490814571345 46.23623112234489 -2 1 0
63 21 3 -0.8476 0.2545765668623011 8.416113136976403 45.658801083154636 -2 1 0
92 31 2 0.4238 4.32185381947813 10.405680960892663 47.70500048137723 -2 -3 0
93 31 3 -0.8476 4.150277487631476 10.958054353513646 48.52324250376915 -2 -3 0
91 31 2 0.4238 4.183102654639548 10.358853195630614 49.30310715239306 -2 -3 0
61 21 2 0.4238 14.903343378734032 8.655244354511767 44.7534721671339 -3 1 0
365 122 2 0.4238 2.067870014366617 10.87422344530035 47.356430174966505 -1 -1 0
282 94 3 -0.8476 0.7195510412850947 14.71255946523614 47.53835274452335 2 3 0
293 98 2 0.4238 1.1002920314166749 0.3595539971637232 43.191753209939996 -1 -2 0
204 68 3 -0.8476 5.48787598368803 9.295410263685781 50.24347631249663 1 -9 0
280 94 2 0.4238 0.1745538897447254 13.876497726367434 47.48856572376988 2 3 0
247 83 2 0.4238 0.3408711195831659 11.318613413173795 45.67802831651033 -2 0 0
366 122 3 -0.8476 1.097185046721802 10.51836615176841 47.48392259044211 -1 -1 0
364 122 2 0.4238 0.8664602907733575 10.934905394793947 48.360828087014504 -1 -1 0
258 86 3 -0.8476 0.06246572503268579 11.382944713052536 50.00980108753666 -1 -2 0
82 28 2 0.4238 1.4780280909697419 14.757990777330734 49.51968053873162 -2 -2 0
203 68 2 0.4238 5.409526318600171 8.339321400486238 50.02790937601002 1 -9 0
257 86 2 0.4238 0.39681814760404466 12.098119234341924 50.56214181141213 -1 -2 0
275 92 2 0.4238 4.859387551014039 14.77419543454402 44.42129212591388 4 -5 0
276 92 3 -0.8476 5.553677354983863 14.157724316727089 44.06422349650489 4 -5 0
331 111 2 0.4238 6.893623042396534 9.626970335329787 44.96172487613001 0 1 0
118 40 2 0.4238 11.07870537689144 12.469101115873183 44.41769010386055 -3 -2 0
28 10 2 0.4238 8.581969109684175 12.165895278377869 46.549849025048665 1 0 0
249 83 3 -0.8476 14.679808635962186 11.630080339510373 45.0514626189196 -3 0 0
248 83 2 0.4238 13.899649771854305 11.29598543887315 45.503355154491054 -3 0 0
29 10 2 0.4238 9.373416441796893 12.083012969399535 47.82448692594323 1 0 0
431 144 2 0.4238 12.31998190789869 8.640961125958833 48.03935890973544 -2 1 0
299 100 2 0.4238 8.885275854998957 9.526707407038815 46.63707448286035 -1 0 0
30 10 3 -0.8476 9.135133596442024 12.70531875994425 47.09779974004774 1 0 0
300 100 3 -0.8476 9.747279566604396 9.121014074843652 46.42903730181413 -1 0 0
131 44 2 0.4238 11.550275986528598 10.320492697704541 46.54470202292733 3 2 0
132 44 3 -0.8476 12.300362130653046 10.307024989891588 47.151054798721944 3 2 0
130 44 2 0.4238 12.325929975975548 11.216931356975856 47.58743074114587 3 2 0
477 159 3 -0.8476 13.407421553403772 14.802213069117013 45.175356303022554 2 -13 -1
476 159 2 0.4238 12.576030208209914 14.396405593456015 44.950628061470006 2 -13 -1
475 159 2 0.4238 13.980617309840724 14.062299333222377 45.28771944888404 2 -13 -1
516 172 3 -0.8476 13.498252803175484 12.821279010800506 47.93260082174261 -3 3 0
514 172 2 0.4238 13.91033773481225 12.246260556788108 48.579747540339575 -3 3 0
298 100 2 0.4238 9.831387090217289 8.822541589099508 45.53272948178343 -1 0 0
515 172 2 0.4238 12.846228581865045 13.480710834996875 48.42186637558384 -3 3 0
246 82 3 -0.8476 10.200524635857338 11.210164567306359 49.247309768178084 2 0 0
244 82 2 0.4238 9.586218190068406 10.476234300560515 49.08039783170219 2 0 0
389 130 2 0.4238 7.958915413489157 13.79455808790079 47.87266741712247 -1 2 0
245 82 2 0.4238 9.906338754775568 11.74419528349252 50.01186651706424 2 0 0
120 40 3 -0.8476 11.07474001919015 13.317746565863896 44.94477521099169 -3 -2 0
119 40 2 0.4238 10.704434825745949 13.142778283709674 45.81735039858266 -3 -2 0
390 130 3 -0.8476 7.2353628616964105 14.339476847212836 48.18071549982704 -1 2 0
432 144 3 -0.8476 12.50955503425302 7.7386332665584785 48.41977982799651 -2 1 0
294 98 3 -0.8476 0.19205890665975137 0.6720523287613384 43.011034150141576 -1 -2 0
213 71 3 -0.8476 13.826586540628886 7.978705368618724 43.5289528884044 1 2 0
388 130 2 0.4238 7.563770210140024 14.852498913335797 48.94647136887449 -1 2 0
292 98 2 0.4238 14.598728711982874 0.29972251521224536 43.72144401090938 -2 -2 0
121 41 2 0.4238 12.265389124894954 7.65260047370055 50.08934234750983 -1 -3 0
430 144 2 0.4238 13.452922554612302 7.535469946736801 48.06186311617022 -2 1 0
444 148 3 -0.8476 2.237166135317288 3.4371070837066835 50.741831978109474 1 0 0
520 174 2 0.4238 1.5024452707701086 3.65571425510195 52.78354516221231 -5 2 0
383 128 2 0.4238 2.352278839026412 5.907292551336372 53.48987259996693 2 1 0
320 107 2 0.4238 14.567051939483544 1.7066220992240562 49.91865109785192 3 5 0
384 128 3 -0.8476 2.6914424841383733 6.837904868463713 53.27564514517597 2 1 0
442 148 2 0.4238 2.4759886928866495 2.5694059977435746 50.255288805837715 1 0 0
522 174 3 -0.8476 1.7292146490454527 4.033842213458215 53.67359707252518 -5 2 0
521 174 2 0.4238 2.447893549913735 3.5378246583170974 54.09917914396692 -5 2 0
214 72 2 0.4238 1.9870186957859242 7.620705998687287 52.0831707608478 3 4 0
406 136 2 0.4238 4.727250096886339 2.7522988497074268 54.613621460770275 1 -2 0
408 136 3 -0.8476 3.7303136590947132 2.6764067321752476 54.84259451000056 1 -2 0
382 128 2 0.4238 3.634674733313337 6.511519627075867 53.05582683859742 2 1 0
216 72 3 -0.8476 1.4326349349185694 8.162441885832344 51.430576238015995 3 4 0
407 136 2 0.4238 3.547217718023085 1.6364906631654768 54.78899554031911 1 -2 0
37 13 2 0.4238 5.725885399141104 3.964877508244559 50.39770361344909 -3 -3 0
163 55 2 0.4238 5.598630252917889 6.879656692904336 54.80665253563834 -1 1 0
136 46 2 0.4238 3.4872077209845744 1.2573324350385597 48.293680414163575 -2 1 0
165 55 3 -0.8476 5.799563126413087 7.079453605159704 53.79300829766989 -1 1 0
138 46 3 -0.8476 3.309420693329168 1.1393393595384729 49.283832325023084 -2 1 0
31 11 2 0.4238 2.5226642002281814 7.582949702648872 55.176297450294584 0 -5 0
443 148 2 0.4238 3.1432113915520135 3.690608497120002 50.94407112623965 1 0 0
264 88 3 -0.8476 6.203695204796399 2.9204251848398464 54.04782937265613 -2 3 0
164 55 2 0.4238 6.7023936687157 6.727010030450534 53.588925226696475 -1 1 0
530 177 2 0.4238 1.0824165757401794 6.250495712082362 50.583398142394785 -4 -2 0
319 107 2 0.4238 0.21589912814602882 0.6560968737108993 50.87904978973906 4 5 0
223 75 2 0.4238 5.150891700871998 5.836619115256797 49.86537853519662 0 -1 0
39 13 3 -0.8476 5.017867071350227 4.290500431871693 51.01404127131014 -3 -3 0
529 177 2 0.4238 1.3426027017694455 4.559528342990767 50.48236624257435 -4 -2 0
534 178 3 -0.8476 2.897979440110837 0.027923142652572043 54.799714824607406 2 -2 0
38 13 2 0.4238 5.5036492988575985 4.394214358468984 51.85211774220307 -3 -3 0
321 107 3 -0.8476 14.578726904338753 1.3842794308038449 50.84659563419558 3 5 0
533 178 2 0.4238 3.4853994680761864 14.849635713781126 55.58735530868575 2 -3 0
531 177 3 -0.8476 0.8403698679370643 5.411265555968323 50.132019668217694 -4 -2 0
262 88 2 0.4238 6.711926446271934 3.382300530246555 54.79616248902577 -2 3 0
263 88 2 0.4238 6.66146282395235 2.0895756569473827 53.729931045399454 -2 3 0
52 18 2 0.4238 11.750727465463445 4.383428147710501 49.781569308530564 0 4 0
372 124 3 -0.8476 7.977035858369009 5.550944537817083 53.1096020850273 0 -3 0
335 112 2 0.4238 13.53065966623028 4.444845840457174 51.88662565419727 1 3 0
129 43 3 -0.8476 12.122879151757175 0.4965685733074808 51.88679814964825 3 3 0
482 161 2 0.4238 9.886176729145708 3.070143022602832 53.87841934872683 -4 -2 0
201 67 3 -0.8476 13.902604133182356 3.615603883955917 53.68665061417596 -1 3 0
200 67 2 0.4238 13.55507047263754 4.4311063578355645 54.0673260301432 -1 3 0
370 124 2 0.4238 8.132789679520837 4.6194096817474 53.474514562606956 0 -3 0
124 42 2 0.4238 13.270087438392524 6.0653773156937385 55.692272106744696 0 -2 0
260 87 2 0.4238 11.874925494692725 14.866343557182448 50.15901229470643 -3 -2 0
127 43 2 0.4238 11.358818803915664 1.0884760784832423 52.12573210829315 3 3 0
540 180 3 -0.8476 9.253010768606702 1.8133281301164206 52.279035974801225 0 -2 0
125 42 2 0.4238 12.080698106698453 5.886661040092563 54.73494344781764 0 -2 0