LAMMPS data file via write_data, version 28 Mar 2023, timestep = 50000, units = metal

543 atoms
3 atom types

0 15 xlo xhi
0 15 ylo yhi
0 100 zlo zhi

Masses

1 12.0107
2 2.00000
3 15.9994

Atoms # full/kk

172 58 2 0.4238 4.887107761539083 3.091458165472951 34.09190875301971 1 -1 0
190 64 2 0.4238 3.407931274068083 3.5929794906575427 32.04765631115375 -1 -1 0
192 64 3 -0.8476 2.584301434073101 3.959753170736652 31.57214346892206 -1 -1 0
191 64 2 0.4238 2.312022803711772 4.686198111628177 32.194362177256316 -1 -1 0
195 65 3 -0.8476 2.2838428500090275 5.6081678176638015 34.11658750695898 -5 1 0
194 65 2 0.4238 3.02212300628154 5.490328160135717 34.71673505101075 -5 1 0
193 65 2 0.4238 1.5372721020981623 5.120122171780623 34.52514213431347 -5 1 0
198 66 3 -0.8476 4.81417894255586 4.623816576210316 35.4958102251789 1 3 0
196 66 2 0.4238 4.61307462619673 3.804035391541224 36.06819769171837 1 3 0
174 58 3 -0.8476 4.786168679309065 2.2735593968047914 33.524332515149524 1 -1 0
358 120 2 0.4238 6.258911253160333 1.473783737537466 34.99530762488772 0 2 0
360 120 3 -0.8476 6.865641829944562 1.1851226476763468 35.77198843866242 0 2 0
197 66 2 0.4238 5.3450095542253155 5.238587968783052 36.075214633311255 1 3 0
402 134 3 -0.8476 4.199081279522321 2.2354498482887553 36.6695077966116 -2 0 0
401 134 2 0.4238 4.828543783566036 1.5443003923098997 37.03738594978774 -2 0 0
455 152 2 0.4238 7.133581134084163 2.4936706671446416 36.9212440335457 0 2 0
488 163 2 0.4238 1.128089140127522 2.230995405901397 35.45277751032885 1 1 0
400 134 2 0.4238 3.3495810528115353 1.8536063467385593 36.287264050943335 -2 0 0
489 163 3 -0.8476 1.4981417115385212 1.8388326894127187 36.260270244508966 1 1 0
487 163 2 0.4238 0.8638480758524393 1.885316729321254 36.98928779690422 1 1 0
68 23 2 0.4238 13.771624880495416 6.386213767997656 35.75473410903616 0 3 0
69 23 3 -0.8476 14.227950943707704 5.613284648115037 35.37896111736201 0 3 0
173 58 2 0.4238 5.45772979619034 2.4813067425393553 32.83084716966402 1 -1 0
55 19 2 0.4238 14.76012073102956 3.4463805840501993 33.425510648244604 -1 4 0
56 19 2 0.4238 1.184137612659491 2.9598846842952167 32.8855905801278 0 4 0
167 56 2 0.4238 13.476412584227786 3.1746608737967286 38.048233202178594 -2 2 0
57 19 3 -0.8476 0.6236669560836101 3.0484695721610606 33.6899626371765 0 4 0
359 120 2 0.4238 7.31596458820681 0.2955488394222477 35.54115154424365 0 2 0
254 85 2 0.4238 1.6656346237052047 7.329073872526382 34.5901196611222 -2 0 0
255 85 3 -0.8476 1.4779182978310446 8.229380641166454 34.992694496031795 -2 0 0
253 85 2 0.4238 0.5178583750485369 8.15265386252098 35.10346865782304 -2 0 0
413 138 2 0.4238 2.114981389094555 8.57854669201762 36.80170074881288 -2 0 0
385 129 2 0.4238 3.1774058229334776 11.454655415541502 35.062146639035866 -3 -2 0
387 129 3 -0.8476 3.927097408496069 11.897081976009618 34.63216919959031 -3 -2 0
386 129 2 0.4238 3.8081680655660697 11.903290961601861 33.716781938704294 -3 -2 0
151 51 2 0.4238 5.592937592275419 11.53207589169357 36.04590893005889 -1 1 0
509 170 2 0.4238 2.437443315290043 14.001726362903677 35.822831498783216 0 1 0
153 51 3 -0.8476 6.31580096364353 11.791050618973813 36.684897379478464 -1 1 0
508 170 2 0.4238 1.6527424275600329 0.08140637563548943 36.59429296649346 0 2 0
412 138 2 0.4238 2.1243052075502584 10.029709959759 37.53521116182726 -2 0 0
426 142 3 -0.8476 13.53825958912948 8.169365250207122 36.75551459403114 0 3 0
381 127 3 -0.8476 1.4549016442224298 11.282378630801011 36.51034709868492 0 -4 0
441 147 3 -0.8476 7.964588819115508 13.541833619269683 35.29250741866868 -1 -3 0
440 147 2 0.4238 8.269664626763042 12.877798757764548 34.667231195499006 -1 -3 0
439 147 2 0.4238 7.398688977188437 13.081359880514754 35.91388762144731 -1 -3 0
222 74 3 -0.8476 12.437353962907515 14.7836502958355 38.15612981872278 0 -1 0
221 74 2 0.4238 12.55034753672546 14.411420559453116 39.060690102720336 0 -1 0
220 74 2 0.4238 12.537643254311458 14.080880921330426 37.53015936042578 0 -1 0
77 26 2 0.4238 1.59944932779304 7.837413527000449 40.766390523850326 -2 0 0
8 3 2 0.4238 2.6313676092441187 5.858994848868157 42.24632333719163 -4 -2 0
409 137 2 0.4238 14.00961397870765 0.780080851788651 38.23018513579482 2 0 0
298 100 2 0.4238 6.419902368953347 7.80666259181123 39.01155433024036 -1 0 0
7 3 2 0.4238 2.651442688983779 5.806470257651452 43.75815685040171 -4 -2 0
405 135 3 -0.8476 5.844614594172394 5.75638298555235 42.927492079945374 -1 2 0
403 135 2 0.4238 4.962398644548376 5.560169069107921 42.849395896464 -1 2 0
404 135 2 0.4238 5.823945272211532 6.706156409372377 43.06547270582962 -1 2 0
456 152 3 -0.8476 7.368866530390678 2.8636126382500127 37.82911236516893 0 2 0
242 81 2 0.4238 2.6608911332790544 13.99014210458904 40.12026611536267 2 0 0
204 68 3 -0.8476 6.927906626317504 2.185732921774965 41.75799160917598 1 -8 0
120 40 3 -0.8476 0.2554488888107215 8.1080199564957 39.31842864244876 -3 -2 0
513 171 3 -0.8476 5.208611780687472 5.372658545159805 39.068371127619464 -4 -3 0
512 171 2 0.4238 4.329103364808063 5.052289204877229 38.7097371733275 -4 -3 0
119 40 2 0.4238 0.8881199378989094 8.531420530413161 38.68845909788596 -3 -2 0
67 23 2 0.4238 13.982274027139365 4.803492447698816 35.941030919630165 0 3 0
34 12 2 0.4238 14.683752372210595 5.113219224423131 39.07752968508177 -2 1 0
36 12 3 -0.8476 0.4650699591463054 5.42878270477368 39.65041082236674 -1 1 0
35 12 2 0.4238 0.2260013919600663 5.150650667550237 40.56188165154909 -1 1 0
206 69 2 0.4238 3.093574506557783 1.67716950552746 41.60656926255155 -3 1 0
44 15 2 0.4238 5.1386698327067775 1.9160549515953518 42.77456358935858 2 2 0
205 69 2 0.4238 2.652008708478389 2.1978309604095485 40.12504915014077 -3 1 0
207 69 3 -0.8476 2.8101419001376193 1.4120971943570613 40.727444612163644 -3 1 0
150 50 3 -0.8476 2.595410261528782 3.5478459731258964 39.213388164553486 1 -2 0
347 116 2 0.4238 1.7460423614990845 3.80385979974463 43.236026301622665 -1 0 0
346 116 2 0.4238 0.503138658393237 3.1690133497371993 42.41534889142268 -1 0 0
348 116 3 -0.8476 0.9020721041930518 3.2459150650907063 43.27575269530821 -1 0 0
149 50 2 0.4238 2.720645532409809 3.0728842439352086 38.36261613853288 1 -2 0
148 50 2 0.4238 1.7490070050429858 4.03035913672012 39.0918489151973 1 -2 0
62 21 2 0.4238 4.735395056873301 1.5623590448360245 39.6271939323186 -3 1 0
63 21 3 -0.8476 5.628588046099983 1.2093351457821038 39.363642059399034 -3 1 0
61 21 2 0.4238 6.062867840202818 1.5181886095480814 40.22844361844776 -3 1 0
454 152 2 0.4238 6.617691976541958 2.5975114270655943 38.34142910182555 0 2 0
9 3 3 -0.8476 2.8623237853063097 5.245113729225644 43.00748913155756 -4 -2 0
506 169 2 0.4238 0.16041300589496157 7.391171893368399 43.90468565240452 -1 -4 0
118 40 2 0.4238 0.27311107361915066 7.111722558640987 39.28297028727212 -3 -2 0
470 157 2 0.4238 8.748007436550889 14.607960495808845 40.985633514862556 4 0 0
505 169 2 0.4238 13.812241893925517 7.2023664604319775 43.037837579869155 -2 -4 0
507 169 3 -0.8476 14.469384647625809 7.854908745296895 43.383778888194385 -2 -4 0
299 100 2 0.4238 7.556193621076277 7.963703350462518 40.04183832900999 -1 0 0
276 92 3 -0.8476 11.808946864931896 7.44817626686725 39.89288134207121 4 -4 0
300 100 3 -0.8476 7.373901583414964 7.81760774349452 39.12923591448371 -1 0 0
411 137 3 -0.8476 14.64782074996706 1.5892555769984642 38.39104014123376 2 0 0
102 34 3 -0.8476 11.20312315956464 7.192994535850617 42.735440261064824 -1 5 0
100 34 2 0.4238 11.503584856408288 7.193189674284339 41.80836637571638 -1 5 0
175 59 2 0.4238 11.915982827467115 0.7584202473133229 43.71963357322326 2 3 0
330 110 3 -0.8476 10.19452806138542 4.62094979416672 42.956609449597345 -1 -2 0
168 56 3 -0.8476 13.274887763484367 4.123115638424274 37.88673969010984 -2 2 0
202 68 2 0.4238 7.6507567217413275 1.6003432049047217 42.07327633437717 1 -8 0
320 107 2 0.4238 10.349198032815568 1.5811002911616427 39.47221649043672 3 5 0
319 107 2 0.4238 10.770528716901206 0.9482921380039585 40.891285210922625 3 5 0
321 107 3 -0.8476 11.021439840489261 1.5916553662191963 40.249825839065 3 5 0
329 110 2 0.4238 10.644310066262491 4.316321593971339 42.08749299406741 -1 -2 0
166 56 2 0.4238 12.370551441593136 4.12277734382135 38.20628997457473 -2 2 0
203 68 2 0.4238 7.3593839249536765 3.038229353713859 41.55124462548802 1 -8 0
4 2 2 0.4238 8.371938124680453 6.05700342696631 38.77086038755581 -4 0 0
494 165 2 0.4238 10.49529786990523 4.791061085842064 39.91077128344309 -3 2 0
493 165 2 0.4238 11.04864425038456 3.3653697566816185 40.270159868172954 -3 2 0
6 2 3 -0.8476 8.970957953567455 5.280080446340796 38.84552064356159 -4 0 0
351 117 3 -0.8476 7.870933416398688 4.880260839693475 41.54539406123581 -2 1 0
5 2 2 0.4238 8.499654319799165 4.590081579433658 38.33785458940629 -4 0 0
101 34 2 0.4238 10.834905106673709 6.264005657549901 42.88518126111912 -1 5 0
349 117 2 0.4238 8.113013065258276 5.01888533321314 40.5914212380804 -2 1 0
523 175 2 0.4238 14.182167889917585 4.77942450992601 42.920459813538976 2 -6 0
525 175 3 -0.8476 14.07018801851792 5.040696148163545 41.96631451965803 2 -6 0
524 175 2 0.4238 13.13496754289698 4.828136890968157 41.72663102650599 2 -6 0
350 117 2 0.4238 6.979802715909397 5.245003260229939 41.73220129087911 -2 1 0
328 110 2 0.4238 9.317530068249951 4.944661751484965 42.638105440708586 -1 -2 0
87 29 3 -0.8476 9.350605720027957 1.3666004508919154 38.19338349916642 4 3 0
86 29 2 0.4238 8.52362801663981 1.92139618388229 38.19754740783952 4 3 0
495 165 3 -0.8476 11.166311319706002 4.341950402476608 40.443487263516936 -3 2 0
367 123 2 0.4238 13.46038737219418 2.216013825566565 44.21114028156722 -3 3 0
369 123 3 -0.8476 13.158489250592798 1.6950514545264403 43.406662245770534 -3 3 0
368 123 2 0.4238 13.946105337924466 1.4437873124052911 42.875623778272896 -3 3 0
152 51 2 0.4238 6.020536101564096 12.542953596753138 37.21442264612262 -1 1 0
179 60 2 0.4238 4.748672322321615 11.236867695638422 43.660522126227896 -4 0 0
180 60 3 -0.8476 4.905501493651958 10.525658217081629 42.95209958013901 -4 0 0
178 60 2 0.4238 4.890588249187549 11.036876831754784 42.108814273637314 -4 0 0
374 125 2 0.4238 0.8751404717398532 12.629467047579713 41.44182732770792 -4 0 0
279 93 3 -0.8476 4.988940975921202 13.571689059740397 38.18792802464187 -2 -1 0
64 22 2 0.4238 1.3422185083279587 13.054859804807904 43.79933425883626 -1 -1 0
396 132 3 -0.8476 4.51277748696289 10.876562919395003 40.31648667570587 -1 -3 0
78 26 3 -0.8476 2.4709516483901526 7.515978091374259 41.104795520814996 -2 0 0
76 26 2 0.4238 3.0516906449635313 7.8113222469867125 40.34584186982597 -2 0 0
375 125 3 -0.8476 0.21189968677915852 12.858299922124525 42.132282891198805 -4 0 0
395 132 2 0.4238 3.591519936371019 11.33900678764997 40.236974123890406 -1 -3 0
218 73 2 0.4238 4.556170324522894 9.315651926403637 39.4737488923814 2 5 0
65 22 2 0.4238 1.755114734135882 13.866645351650423 45.059810870521076 -1 -1 0
66 22 3 -0.8476 1.9492112625942586 13.035730460204912 44.630751454982665 -1 -1 0
28 10 2 0.4238 2.52934397041115 8.55986180638109 42.61879165734022 2 0 0
29 10 2 0.4238 3.51778407492059 9.50553137450701 43.24251357747382 2 0 0
510 170 3 -0.8476 2.1281147928049924 14.201820667700945 36.6671495777804 0 1 0
511 171 2 0.4238 5.15376759644927 6.364633726220495 39.18954680348568 -4 -3 0
277 93 2 0.4238 4.029282928608124 13.754913073923309 37.98431915402761 -2 -1 0
241 81 2 0.4238 3.221609162045362 13.230786674488757 41.392020336619694 2 0 0
243 81 3 -0.8476 2.5979722707938615 13.149389741536734 40.62809398576371 2 0 0
278 93 2 0.4238 5.213421290226553 14.202078381093024 38.951581040603415 -2 -1 0
72 24 3 -0.8476 0.09409559827061585 0.9079835786513493 41.26168416435667 -2 3 0
71 24 2 0.4238 1.0381206457586423 1.0632999834067187 41.1589867654737 -2 3 0
217 73 2 0.4238 3.905302237196949 8.632065017268028 38.34926170701284 2 5 0
373 125 2 0.4238 14.802815051085032 12.014954318902303 42.34537813537523 -5 0 0
394 132 2 0.4238 5.271303088329247 11.469677330894822 40.091167974089785 -1 -3 0
414 138 3 -0.8476 2.1299502859538015 9.080549286473317 37.71909155565599 -2 0 0
219 73 3 -0.8476 4.487953616798338 8.394076518436277 39.088243527343586 2 5 0
108 36 3 -0.8476 14.071013492195926 10.789709708393357 43.73147267438706 -5 -1 0
503 168 2 0.4238 14.236244579106096 9.657020709305131 40.52757989370101 0 -2 0
107 36 2 0.4238 13.930600067333344 11.513556239966478 44.38855418504557 -5 -1 0
537 179 3 -0.8476 13.652647985167624 11.478755409748379 37.71965687395424 -1 2 0
535 179 2 0.4238 14.120120630956853 11.40944838919188 38.61353906736215 -1 2 0
274 92 2 0.4238 12.237026943764938 6.891235248120471 39.195701239957785 4 -4 0
410 137 2 0.4238 14.710042293098802 1.5848153163392966 39.337759147219636 2 0 0
471 157 3 -0.8476 8.780899579745663 14.175316583323912 40.15313141231903 4 0 0
113 38 2 0.4238 7.787522155635146 9.665544932160469 38.727745941114144 4 0 0
114 38 3 -0.8476 7.9488299687903945 10.656577192836247 38.60904342981989 4 0 0
322 108 2 0.4238 10.161702282135447 10.734481997455807 38.51328358848246 -1 5 0
324 108 3 -0.8476 11.116678541965653 10.597818102354676 38.55317697612551 -1 5 0
323 108 2 0.4238 11.299868300978657 10.741393769925203 39.5154198565729 -1 5 0
275 92 2 0.4238 11.408719671387955 8.258063824632718 39.4363100196002 4 -4 0
536 179 2 0.4238 12.737292426801659 11.421892361938937 37.992522710174825 -1 2 0
435 145 3 -0.8476 7.354312051401773 11.918030088007965 41.38216887821829 -3 1 0
434 145 2 0.4238 8.00534174589048 12.409959367473457 40.815941634985265 -3 1 0
469 157 2 0.4238 8.667484332027906 14.818629358148796 39.40689631435612 4 0 0
464 155 2 0.4238 9.987371061321053 10.079498285465487 41.40154313988706 3 1 0
465 155 3 -0.8476 10.695053486087899 10.777431585462848 41.337648528689485 3 1 0
112 38 2 0.4238 7.251910516759982 10.85268368148644 37.94357620512021 4 0 0
390 130 3 -0.8476 12.440248315719094 13.538373699443829 40.80977880593657 -1 2 0
388 130 2 0.4238 11.54504748229687 13.133051713727985 40.73457876865819 -1 2 0
389 130 2 0.4238 12.771676016175276 13.13136584420504 41.6157932809032 -1 2 0
463 155 2 0.4238 11.13186705106954 10.758413823921115 42.21265574709605 3 1 0
433 145 2 0.4238 7.5827979691065215 11.053926923566314 41.07749363051689 -3 1 0
302 101 2 0.4238 8.28906573404434 8.370061734430434 42.331059676060924 -1 3 0
303 101 3 -0.8476 8.896140079617837 8.508429654745788 41.549582935165304 -1 3 0
301 101 2 0.4238 9.650647984141777 8.041052915473413 41.91245266140398 -1 3 0
70 24 2 0.4238 14.942755328459667 14.99652952673309 41.08904549971014 -3 2 0
106 36 2 0.4238 14.51935755946282 10.024006223357043 44.17784595736044 -5 -1 0
85 29 2 0.4238 9.73782169947299 1.2700889440616614 37.33265643428271 4 3 0
379 127 2 0.4238 1.4413629781277184 12.154340895503342 36.919420245694155 0 -4 0
380 127 2 0.4238 0.541045541799235 11.00946140474311 36.39893176779523 0 -4 0
424 142 2 0.4238 13.720653100394248 8.056301692503112 37.71784502407667 0 3 0
504 168 3 -0.8476 14.206574378044065 10.602118478046084 40.62656095717793 0 -2 0
502 168 2 0.4238 13.24686090454192 10.878006945931169 40.645856403365855 0 -2 0
425 142 2 0.4238 13.208021685245866 9.082663216955796 36.74580193090894 0 3 0
432 144 3 -0.8476 4.067925250673058 1.2017161524049187 45.999703562170744 -1 1 0
430 144 2 0.4238 3.955093013443408 2.098919328432667 46.373540454913346 -1 1 0
431 144 2 0.4238 3.1428902562878593 0.9163797604314199 45.82278322460416 -1 1 0
48 16 3 -0.8476 6.744954869469974 3.7772006099999746 44.67748812107427 -1 3 0
473 158 2 0.4238 6.264872981568391 4.166351988189819 46.28849466404929 -7 7 -1
326 109 2 0.4238 5.132734298623832 14.986438959146177 46.95469805673532 3 -3 0
514 172 2 0.4238 4.4456689262160705 6.156047834353309 49.29154465264127 -2 4 0
423 141 3 -0.8476 5.12889170043316 14.677182169041442 49.92884941787632 2 -1 0
40 14 2 0.4238 7.019843462043579 0.08462619774277336 46.99508995184456 -2 5 0
325 109 2 0.4238 5.548807138198779 13.38950955554512 46.729423480829404 3 -3 0
327 109 3 -0.8476 5.651940576388022 14.203618712987732 47.28462092854896 3 -3 0
479 160 2 0.4238 3.2521858780505184 13.37924003072477 43.443693508842635 -4 3 0
21 7 3 -0.8476 3.1212711761197958 4.323329353911418 46.96514791526178 1 2 0
421 141 2 0.4238 5.188988397549241 14.50818104335513 48.99252788622829 2 -1 0
474 158 3 -0.8476 5.884976678897496 4.69440228780325 47.02700859082274 -7 7 -1
20 7 2 0.4238 4.081091781402107 4.401830951362455 46.860745550943626 1 2 0
472 158 2 0.4238 6.507348189058845 4.448468450531512 47.703807140827436 -7 7 -1
332 111 2 0.4238 0.9510250233861447 3.8841735729018194 49.31943188645186 0 2 0
19 7 2 0.4238 2.732441079371587 5.021352102506819 46.352060630405504 1 2 0
331 111 2 0.4238 2.1610227415343126 3.857648208509949 48.4197843803581 0 2 0
333 111 3 -0.8476 1.5963843129063393 3.2220087963089465 49.002637223051934 0 2 0
271 91 2 0.4238 1.5370430457754645 6.88868403386329 46.016701044521454 3 1 0
516 172 3 -0.8476 4.502188170381994 7.14052537166581 49.15144748420834 -2 4 0
199 67 2 0.4238 2.91711746638263 7.678589471530315 50.171141431881594 0 3 0
515 172 2 0.4238 3.9521885230296507 7.205236193987476 48.300276727391186 -2 4 0
135 45 3 -0.8476 1.509655708749706 0.8806179566137116 44.73365404834949 -1 0 0
154 52 2 0.4238 6.836805498307816 6.332558845430089 46.35765578378496 2 -5 0
133 45 2 0.4238 0.8726959326615638 0.8325239579061406 45.48702903813538 -1 0 0
201 67 3 -0.8476 2.5022656625876194 8.497960416470887 50.57968895740933 0 3 0
200 67 2 0.4238 1.573802315265075 8.603816043045883 50.26951696799026 0 3 0
47 16 2 0.4238 6.639591772640761 4.5874683547197685 44.07053518697923 -1 3 0
46 16 2 0.4238 7.4578991719236525 3.223522913403282 44.30828063181457 -1 3 0
422 141 2 0.4238 4.173876069637934 14.509999442576518 50.295986421026306 2 -1 0
43 15 2 0.4238 4.5149716195583105 1.5428275229757837 44.143878869783755 2 2 0
272 91 2 0.4238 0.6094615009697429 5.578898629280698 45.55903325763294 3 1 0
478 160 2 0.4238 4.215914898654914 14.430509129249515 42.95144622891274 -4 3 0
273 91 3 -0.8476 1.5330172570532814 6.047066936288613 45.515742575829684 3 1 0
45 15 3 -0.8476 4.462568397821578 1.2904535340434728 43.16258164655478 2 2 0
22 8 2 0.4238 10.35567614392084 7.404672556986453 49.22490519955441 -3 -1 0
169 57 2 0.4238 13.630511198709764 4.332043235038612 45.392229273030765 -4 3 0
171 57 3 -0.8476 13.987769581762118 5.196086372422971 45.064251455640026 -4 3 0
213 71 3 -0.8476 12.48280522667082 13.43567555567129 49.71481203890015 1 1 0
211 71 2 0.4238 12.194721257313958 13.63778280507804 48.80503594019077 1 1 0
304 102 2 0.4238 12.662237252122615 2.7081415907537476 47.21437523332087 1 1 0
177 59 3 -0.8476 11.089343842698202 0.3240161440867455 44.009895065060924 2 3 0
477 159 3 -0.8476 14.396228437141822 0.1429836431954228 46.55093160105908 2 -12 -1
121 41 2 0.4238 14.488685058941575 8.08537886073601 46.87121473529868 -1 -3 0
170 57 2 0.4238 13.378078782503536 5.937325330215726 45.45196677616433 -4 3 0
475 159 2 0.4238 13.58354985479969 0.6794704730720053 46.498510745810336 2 -12 -1
42 14 3 -0.8476 7.936289762880755 0.4963149250871429 46.80417229258833 -2 5 0
306 102 3 -0.8476 12.718534055420205 2.7642299831575814 46.210004451273385 1 1 0
41 14 2 0.4238 7.794502003721638 1.1490181661938281 46.12878672375808 -2 5 0
352 118 2 0.4238 0.4934378229319686 1.6515382159001684 49.33646551715804 0 -2 0
105 35 3 -0.8476 12.755427456075285 7.441400943332279 46.27124713008157 -3 1 0
305 102 2 0.4238 11.755798485084986 2.9443230273906393 45.90224160501003 1 1 0
419 140 2 0.4238 9.508820732349571 3.8123675606892617 46.76451500963849 -1 0 0
418 140 2 0.4238 8.734317992301333 4.174830210098791 48.186463016440705 -1 0 0
311 104 2 0.4238 9.145729107107618 1.3530949697644843 48.115589270482815 -4 -1 0
476 159 2 0.4238 14.541578129232962 14.96808766763449 47.457476081401694 2 -13 -1
232 78 2 0.4238 9.235081780591697 14.849961874053827 43.2474525257382 -4 6 0
234 78 3 -0.8476 8.313027055614276 0.04899592667165628 42.92932534532705 -4 7 0
104 35 2 0.4238 12.218289916549033 7.006186087514056 46.887129870929506 -3 1 0
103 35 2 0.4238 12.405574551993391 8.047896015628934 45.615085875858455 -3 1 0
14 5 2 0.4238 10.843966386660563 5.404919987343867 47.92155000126268 3 2 0
131 44 2 0.4238 10.339973669416864 1.835604145809669 44.65591201839056 3 3 0
132 44 3 -0.8476 10.062632163971825 2.7275735552846947 45.11540754513219 3 3 0
15 5 3 -0.8476 11.332286444016676 6.152523252953903 48.36210455171919 3 2 0
420 140 3 -0.8476 9.43721011752616 4.476880372019034 47.519700648196455 -1 0 0
13 5 2 0.4238 11.928096079253194 5.941446318527405 49.15409324614427 3 2 0
130 44 2 0.4238 9.967640573330288 3.416183991173981 44.327732833523314 3 3 0
315 105 3 -0.8476 3.7729578668228343 10.884312481909317 50.35388901870732 -1 1 0
139 47 2 0.4238 7.852984346568929 10.292102453214236 47.9410057467038 3 -3 0
185 62 2 0.4238 7.95075278014024 12.300721459825587 49.28556396720092 -1 -3 0
224 75 2 0.4238 4.897201363089989 8.085900679859073 45.99673725821706 0 -1 0
225 75 3 -0.8476 3.928785255247113 8.286603641038667 46.0811713553729 0 -1 0
428 143 2 0.4238 3.909837318727562 10.580558729051182 48.44587718082102 2 -2 0
429 143 3 -0.8476 3.9080909985227645 10.608709773988169 47.479044476977016 2 -2 0
427 143 2 0.4238 3.7018127673563392 9.693882138941497 47.10300265653065 2 -2 0
437 146 2 0.4238 4.540817893639004 11.656610734573604 46.2256940490035 -2 1 0
134 45 2 0.4238 1.1631510487849737 1.729650191546017 44.37241305644461 -1 0 0
141 47 3 -0.8476 8.266916289189869 11.196968451377122 48.013553391108 3 -3 0
438 146 3 -0.8476 4.829278407270348 12.109785226850969 45.39515124179768 -2 1 0
436 146 2 0.4238 4.107400248846052 12.67503589754033 45.15304306563668 -2 1 0
223 75 2 0.4238 3.428422887737185 8.49168663267939 45.28107129829043 0 -1 0
355 119 2 0.4238 1.7059633019339693 9.929797330506819 44.57273930672847 -1 -4 0
156 52 3 -0.8476 6.832351792433866 7.278129047548543 46.18844102390514 2 -5 0
314 105 2 0.4238 3.277938823100685 10.015789393658014 50.41097358056276 -1 1 0
453 151 3 -0.8476 7.682854144501899 12.504957897570707 44.01965687924173 -2 0 0
30 10 3 -0.8476 2.6817207786529007 8.985231766540164 43.47419586026702 2 0 0
452 151 2 0.4238 7.5725990866459245 12.290434122454034 43.046754634989504 -2 0 0
79 27 2 0.4238 2.844656438629917 13.347980244600759 48.09169014157052 -3 -3 0
451 151 2 0.4238 6.748211842558592 12.527026064828569 44.29471995519199 -2 0 0
155 52 2 0.4238 7.079400496049522 7.663995060564043 47.05098134875036 2 -5 0
80 27 2 0.4238 1.9407301124093599 14.54531136975406 48.453450626626285 -3 -3 0
229 77 2 0.4238 6.762514086573947 8.295352471723742 44.47567418861963 0 -1 0
81 27 3 -0.8476 2.1223841217470527 13.898198723230552 47.70852538038621 -3 -3 0
230 77 2 0.4238 6.264072349529617 9.291602408686405 43.43381378959026 0 -1 0
480 160 3 -0.8476 4.107988733151667 13.452951326746263 42.88148890015594 -4 3 0
468 156 3 -0.8476 11.608309784339934 9.594753307139703 44.281567304580115 0 -2 0
466 156 2 0.4238 11.419833891332758 8.798753342314493 43.731746270601356 0 -2 0
467 156 2 0.4238 12.410319731670773 9.967123808558304 43.87860231967358 0 -2 0
18 6 3 -0.8476 9.951383177870904 13.716582043328332 51.188378581073735 1 3 0
240 80 3 -0.8476 11.016152158211641 10.3348676339562 48.79147759228909 -4 -1 0
239 80 2 0.4238 10.870399443196382 9.481739762064757 49.31519185860657 -4 -1 0
123 41 3 -0.8476 0.3396188433387849 8.457922156759432 47.17966267333864 0 -3 0
140 47 2 0.4238 8.674231002105426 11.306752731041188 47.14091462743728 3 -3 0
357 119 3 -0.8476 1.1693977701942215 10.256318277925896 45.32626031265095 -1 -4 0
356 119 2 0.4238 1.3205690206815013 11.229601343274702 45.35161067584692 -1 -4 0
312 104 3 -0.8476 9.711384892964713 1.3073327775224344 48.94693889785448 -4 -1 0
122 41 2 0.4238 0.5525817586963014 9.15991687691806 46.5095941054685 0 -3 0
343 115 2 0.4238 14.93988325889445 8.895422019300103 48.778880095205736 -6 -2 0
310 104 2 0.4238 9.651218579290166 0.41616542225863284 49.25976239129666 -4 -1 0
212 71 2 0.4238 13.280624954545294 12.85937070888953 49.54038789159633 1 1 0
233 78 2 0.4238 7.961439501286453 14.285399227643554 43.46815037111217 -4 6 0
176 59 2 0.4238 11.255854321402307 14.65900170344914 44.71682855784555 2 2 0
88 30 2 0.4238 10.98808643920578 13.344022684425395 46.3435014878203 1 -1 0
90 30 3 -0.8476 10.823470099818273 14.038271463967105 47.02833964181511 1 -1 0
89 30 2 0.4238 9.885423896366174 14.243171558536387 46.95932645494948 1 -1 0
397 133 2 0.4238 13.858391031775579 13.495812582495985 45.60549033346752 -6 -2 0
231 77 3 -0.8476 6.579737428896382 8.384020012739896 43.55208060883732 0 -1 0
399 133 3 -0.8476 13.151696738986793 12.845466767845611 45.336677864847594 -6 -2 0
238 80 2 0.4238 10.040363677270227 10.432937911120426 48.53450728027063 -4 -1 0
292 98 2 0.4238 0.6555987809394608 12.218880902835725 49.30798040787363 -1 -3 0
484 162 2 0.4238 8.905775922376069 11.717662968970608 44.89238901456862 -3 2 0
486 162 3 -0.8476 9.552719193219836 11.34209698678958 45.563822217068385 -3 2 0
398 133 2 0.4238 13.117688665597173 12.22676872799531 46.11348587181013 -6 -2 0
485 162 2 0.4238 10.237056505100133 10.81175790903805 45.07655008864168 -3 2 0
294 98 3 -0.8476 14.974687622167412 12.396467215567919 49.93905567309549 -2 -3 0
293 98 2 0.4238 0.3632703997845098 12.699324674211473 50.8115014503787 -1 -3 0
210 70 3 -0.8476 13.11919717220459 10.86595375755516 47.40804527541326 -4 -2 0
208 70 2 0.4238 12.294399217445806 10.47154714571416 47.838644182679026 -4 -2 0
209 70 2 0.4238 13.649700717755337 10.118703813193067 47.31013981239955 -4 -2 0
498 166 3 -0.8476 1.118903557675009 5.32982377517924 52.71375285062961 4 2 0
82 28 2 0.4238 6.082354428078858 6.567041658197053 50.770289739348584 -3 -2 0
267 89 3 -0.8476 2.7005758085256324 14.442568377147524 50.685628031322935 -1 -3 0
269 90 2 0.4238 4.321176667806625 0.40088001275958834 53.498678239860986 1 0 0
270 90 3 -0.8476 3.431352648335435 0.05402159724220328 53.49339939694483 1 0 0
342 114 3 -0.8476 5.996484247949908 1.7997583371966333 56.99508561909513 2 -2 0
408 136 3 -0.8476 6.237363850221965 5.3008504275437796 54.325651414637115 1 -2 0
353 118 2 0.4238 0.40989467953565306 0.2769479820865076 50.089985734711846 0 -2 0
340 114 2 0.4238 6.426180357422167 1.8735771976481541 56.091351047195964 2 -2 0
74 25 2 0.4238 2.61262267873903 6.887608961777732 56.81319139041437 4 1 0
407 136 2 0.4238 6.261193821444496 6.216295937446003 53.90095382809839 1 -2 0
354 118 3 -0.8476 0.023444314138518975 0.7515285234281325 49.376833477028086 0 -2 0
283 95 2 0.4238 1.2569144480461945 2.45733801965823 52.32556433059241 0 0 0
539 180 2 0.4238 0.04637210233722066 6.545914998112701 49.7617104882695 0 -2 0
540 180 3 -0.8476 0.4551876738683077 5.686686839084101 49.857394004647155 0 -2 0
538 180 2 0.4238 0.7072522120373967 5.6885395846152464 50.806267781011606 0 -2 0
109 37 2 0.4238 5.461867091841988 8.587674305099005 54.3788357691683 -3 -2 0
445 149 2 0.4238 4.324229402156677 4.586289534580044 51.88481209101675 -1 2 0
265 89 2 0.4238 2.6021295703668517 0.052598153489114424 51.47860206192568 -1 -2 0
461 154 2 0.4238 6.8816409742882465 3.2606022500686866 49.892223288474824 0 4 0
366 122 3 -0.8476 6.684097730023816 1.6321405733160679 51.160075166305326 -1 -1 0
364 122 2 0.4238 6.232090024024993 0.860075435528034 50.70588503911644 -1 -1 0
365 122 2 0.4238 7.578099095292393 1.291592611421239 51.49973403776211 -1 -1 0
181 61 2 0.4238 3.937859598207976 1.6893547110774505 50.436262885157504 2 -5 0
247 83 2 0.4238 5.774751904707468 2.192291097005095 52.70602093017379 -2 0 0
249 83 3 -0.8476 5.86112099226782 2.1936269262739825 53.684799920994266 -2 0 0
182 61 2 0.4238 2.7668142550242516 2.7455124769375407 50.22231518749348 2 -5 0
183 61 3 -0.8476 3.4580024014435624 2.3792315407812556 50.864569097135856 2 -5 0
268 90 2 0.4238 3.2943804522800644 14.759796678337356 54.4623383224527 1 -1 0
447 149 3 -0.8476 4.546207049891966 5.523263067833263 51.71440750985778 -1 2 0
248 83 2 0.4238 5.944131278325684 3.094733175558139 53.907374982254034 -2 0 0
93 31 3 -0.8476 3.110777086696397 4.429713459856098 54.900991436336604 -1 -2 0
92 31 2 0.4238 2.6083951481729497 4.7974014360283945 54.13359024772475 -1 -2 0
91 31 2 0.4238 4.082085280411984 4.636301931666598 54.6327108845069 -1 -2 0
284 95 2 0.4238 1.8984825449349227 1.3860430732255795 53.237820756555806 0 0 0
497 166 2 0.4238 1.198468217686394 6.235102370340976 53.19727139654464 4 2 0
285 95 3 -0.8476 1.0682119147900395 1.764604769936258 52.911016796377424 0 0 0
244 82 2 0.4238 9.386934560145761 0.04027159012318452 52.227365431552585 2 1 0
450 150 3 -0.8476 8.733308892970612 5.3754619344542105 52.54422999303216 4 4 0
257 86 2 0.4238 11.456284518532183 7.124379810154647 52.61037914854046 -2 -1 0
216 72 3 -0.8476 11.658219301488483 3.303990338834817 53.681507164647826 3 4 0
496 166 2 0.4238 0.14789370807942231 5.182858119340156 52.76328389049025 4 2 0
214 72 2 0.4238 11.786619899064561 2.8091243417989498 52.82666779905915 3 4 0
530 177 2 0.4238 14.764221556064815 1.6935824705155988 53.91646953760786 -5 -2 0
531 177 3 -0.8476 13.797974904473836 1.656262271726609 54.203576010309504 -5 -2 0
529 177 2 0.4238 13.447577316577819 0.9040160601697497 53.6318602839469 -5 -2 0
490 164 2 0.4238 13.719065491200757 0.9994892348069797 55.610305212581395 -1 -1 0
406 136 2 0.4238 6.688239753267217 5.443961619367964 55.18983546566215 1 -2 0
462 154 3 -0.8476 7.5146201078231165 3.9189353904717987 49.6652791592478 0 4 0
448 150 2 0.4238 7.9465256157132815 5.06209315703148 53.02318265839826 4 4 0
281 94 2 0.4238 10.124277491466746 2.826574096765554 50.31040992866164 2 3 0
138 46 3 -0.8476 12.930378322830133 5.059933323989536 56.08878151989493 -3 1 0
136 46 2 0.4238 13.570170974227807 5.772980818916853 55.998007342077635 -3 1 0
59 20 2 0.4238 13.66859692922043 4.459697195588988 49.996167329760326 -5 3 0
58 20 2 0.4238 12.400199742157332 3.667218683443183 49.954165254937934 -5 3 0
60 20 3 -0.8476 12.698148194854474 4.545726575658794 50.23207133408012 -5 3 0