LAMMPS data file generated by OpenBabel
6 atoms
3 atom types

  0.00000   12.42000 xlo xhi
  0.00000   12.42000 ylo yhi
  0.00000   12.42000 zlo zhi



Masses

1 12.0107 # C
2 2.00000 # 1.00794 # H
3 15.9994 # O


Atoms

1       1    2    0.41000    1.52800    0.24200    0.41400 #   H
2       1    2    0.41000    0.01600    0.85800    0.44200 #   H
3       1    3   -0.82000    0.55500    0.01600    0.44800 #   O
4       2    1    0.00000    0.95900    1.33000    9.04200 #   C
5       2    3   -0.82000    1.74300    1.89400    9.93600 #   O
6       2    3   -0.82000    0.17700    0.76500    8.14600 #   O
