LAMMPS data file via write_data, version 28 Mar 2023, timestep = 50000, units = metal

543 atoms
3 atom types

0 15 xlo xhi
0 15 ylo yhi
0 100 zlo zhi

Masses

1 12.0107
2 2.00000
3 15.9994

Atoms # full/kk

347 116 2 0.4238 7.134644942019396 7.509704785516543 37.629478695413816 -1 0 0
524 175 2 0.4238 6.869344897225534 3.6319802815774707 36.38313467814238 3 -6 0
525 175 3 -0.8476 5.931001227040552 3.672379291102546 36.211637093316035 3 -6 0
412 138 2 0.4238 2.866243585264737 3.0798656890170535 37.933444299025645 -2 1 0
414 138 3 -0.8476 3.648634805389724 3.2648776966723867 38.432035268964924 -2 1 0
413 138 2 0.4238 4.3431716971233705 3.4395363337000666 37.74956925151476 -2 1 0
523 175 2 0.4238 5.724432449800257 4.494879552113735 35.73402841886565 3 -6 0
217 73 2 0.4238 2.091906949620339 6.3752275624903145 35.99474078712788 3 5 0
218 73 2 0.4238 2.9416443191386192 6.842483981614785 37.0688421374958 3 5 0
219 73 3 -0.8476 2.494718462870567 7.2049372245567245 36.32267312544299 3 5 0
324 108 3 -0.8476 5.240788815975748 6.273975978312833 35.31437911139195 -1 5 0
323 108 2 0.4238 4.444947344594921 6.767218821192398 35.57840158781333 -1 5 0
322 108 2 0.4238 5.998308501140802 6.779543706467005 35.87049100520365 -1 5 0
192 64 3 -0.8476 0.8361126685356587 3.939028285746017 36.818626972749186 -1 -1 0
410 137 2 0.4238 4.589951732228638 6.150018699354897 38.70092500580285 3 0 0
102 34 3 -0.8476 8.507507274928853 1.5784839641468775 35.468678903150845 -1 5 0
190 64 2 0.4238 14.957390149188384 4.2944702785659485 36.74507170505536 -2 -1 0
397 133 2 0.4238 12.889763829862085 4.289538432871697 35.04700256611915 -6 -1 0
399 133 3 -0.8476 13.325919828448715 4.598244578538683 35.8878497563042 -6 -1 0
398 133 2 0.4238 12.738425797546235 4.2118430439069385 36.565137452827386 -6 -1 0
503 168 2 0.4238 9.630190708905392 4.18030798638184 33.82484270739668 0 -2 0
502 168 2 0.4238 9.377174460122028 3.0176081110471284 34.97819593320998 0 -2 0
504 168 3 -0.8476 9.938080898466751 3.7980169500448424 34.694554592786595 0 -2 0
194 65 2 0.4238 9.812923900250617 5.360086795484101 35.526056731547804 -5 1 0
488 163 2 0.4238 12.64633211580237 6.490940284833817 35.8618167846402 1 0 0
193 65 2 0.4238 9.10904621752167 6.6935908183789286 35.41136674819352 -5 1 0
195 65 3 -0.8476 9.705354999199926 6.242938250288767 36.01044121526363 -5 1 0
101 34 2 0.4238 8.15780989870081 0.8387934736190809 35.0746292464068 -1 5 0
100 34 2 0.4238 8.830290199929829 1.2872640510294209 36.360034401481826 -1 5 0
275 92 2 0.4238 11.407931529130797 2.294371601777202 37.797404712315405 4 -4 0
276 92 3 -0.8476 11.951107434866733 3.0779546022911886 38.008940212769296 4 -4 0
274 92 2 0.4238 12.528424744698443 2.6683352969163003 38.715324647591615 4 -4 0
348 116 3 -0.8476 7.237558947939307 8.052252896846774 36.873834552859826 -1 0 0
346 116 2 0.4238 6.717332731223694 8.881602491100509 37.08501279800891 -1 0 0
151 51 2 0.4238 2.9012321046936043 10.896793030265648 37.065231836553814 0 1 0
495 165 3 -0.8476 3.451869177966093 13.898976927928521 37.171021870940756 -2 1 0
253 85 2 0.4238 5.678307200102799 0.5382126877686151 35.55666371789047 -1 1 0
493 165 2 0.4238 4.048040004659619 14.60125768344211 36.76331817351538 -2 1 0
255 85 3 -0.8476 4.738707469905647 0.7871051471992252 35.64908094092694 -1 1 0
153 51 3 -0.8476 3.599336734323891 11.078062786212138 36.40482754377464 0 1 0
152 51 2 0.4238 3.7718701579264056 12.004787415092387 36.65011804050725 0 1 0
254 85 2 0.4238 4.754925696885141 1.7807823693116953 35.648466996798994 -1 1 0
489 163 3 -0.8476 12.311222289162988 7.409602402751563 35.70014085645582 1 0 0
487 163 2 0.4238 11.357469474603782 7.180037952251676 35.728370852278225 1 0 0
64 22 2 0.4238 6.978627810446065 13.560637640653889 35.92042915820579 -2 -1 0
66 22 3 -0.8476 7.0066585051670165 14.277445353683811 35.22281533634365 -2 -1 0
65 22 2 0.4238 6.590416221565903 13.768972701769263 34.41771586562996 -2 -1 0
56 19 2 0.4238 12.512451606965815 9.125347318236365 36.76851710319059 -1 3 0
386 129 2 0.4238 0.5178363643175338 0.7079562603887889 38.326970105564605 -1 -2 0
230 77 2 0.4238 3.5454745180795455 1.6473880076923757 43.174521450390415 0 0 0
191 64 2 0.4238 0.744810860468856 2.9662084948027014 36.626402434750126 -1 -1 0
85 29 2 0.4238 1.7523289155804567 8.394027747070606 37.66402347346812 5 3 0
221 74 2 0.4238 4.986922210327722 0.2933458103692939 38.75041930264373 0 0 0
385 129 2 0.4238 1.7027807620889575 1.4271112254182334 38.968575024706084 -1 -2 0
387 129 3 -0.8476 1.4065746126777314 1.111729765550969 38.06656463174357 -1 -2 0
411 137 3 -0.8476 3.675533558966753 6.010739275878319 38.5143427850894 3 0 0
409 137 2 0.4238 3.49875128456087 5.12017211297886 38.91161131091905 3 0 0
305 102 2 0.4238 3.2897032214732578 3.602556347842602 41.047436235226385 2 1 0
231 77 3 -0.8476 2.833641199664947 2.0635339461825573 43.7085837304931 0 0 0
350 117 2 0.4238 4.518766315393752 5.862451478253347 40.81233160233166 -2 1 0
351 117 3 -0.8476 4.356650941071554 5.182620517615828 41.516558760475604 -2 1 0
405 135 3 -0.8476 6.4203761022838215 6.600360537125362 39.24803264831471 -1 2 0
513 171 3 -0.8476 2.802070338364011 8.075203066511603 41.17305719321586 -3 -3 0
404 135 2 0.4238 7.241633220769201 6.184217500543338 39.524469587155956 -1 2 0
306 102 3 -0.8476 2.488587460629526 3.0274032326653044 40.954754690063055 2 1 0
304 102 2 0.4238 2.301765393264366 2.8069917185528137 41.88645149114049 2 1 0
349 117 2 0.4238 3.7361456320904503 5.5789520750856125 42.1559132951706 -2 1 0
456 152 3 -0.8476 6.399324475231277 2.4066425398821947 39.977976160796295 0 2 0
454 152 2 0.4238 6.666619767939669 2.879484661824133 40.78153616438294 0 2 0
332 111 2 0.4238 6.3958423986144535 5.346762593811279 42.095109056190395 0 2 0
455 152 2 0.4238 5.521922001151141 2.79769380562697 39.90824228647123 0 2 0
420 140 3 -0.8476 0.1429907795412835 2.3909917451729954 42.918893460708496 -1 0 0
418 140 2 0.4238 14.209541505317514 2.3452630880960363 43.142531384269304 -2 0 0
367 123 2 0.4238 7.903391945994559 2.1137894536443858 38.72354626874427 -2 3 0
272 91 2 0.4238 1.4460186419880476 4.098012090813038 40.023976437990214 3 1 0
273 91 3 -0.8476 0.6334163788663153 4.434693903777828 39.5661409208974 3 1 0
271 91 2 0.4238 0.7088446362133864 4.1201373281982265 38.62644905335334 3 1 0
333 111 3 -0.8476 7.323317505760372 4.982206064448131 42.22526005250249 0 2 0
511 171 2 0.4238 2.3280189551307844 7.6328264149631115 40.49471858358651 -3 -3 0
512 171 2 0.4238 2.270408610714209 8.164545722020293 42.01517998882582 -3 -3 0
401 134 2 0.4238 0.8976943068812834 1.1817283284630558 41.79787012238826 -1 0 0
222 74 3 -0.8476 4.8612927550634755 14.95915034343389 39.66243199181121 0 -1 0
134 45 2 0.4238 11.827265423284272 4.264050475712039 42.73331171863774 -2 0 0
135 45 3 -0.8476 11.671356757585729 3.2975111322654787 43.06297840122326 -2 0 0
34 12 2 0.4238 9.158525305456552 13.947157817871066 40.07707312821841 -2 0 0
508 170 2 0.4238 10.69096951580126 0.07535990306540796 38.32880027361927 0 2 0
509 170 2 0.4238 12.03684944913822 0.2724819914564104 37.62601012976763 0 2 0
440 147 2 0.4238 9.239577869072638 8.152014181965471 37.658894035942595 0 -3 0
441 147 3 -0.8476 9.906787641702117 8.316648263987577 38.3425281054872 0 -3 0
331 111 2 0.4238 7.8632512286285525 5.014937117720384 41.4237051170035 0 2 0
159 53 3 -0.8476 2.5947785973030433 5.2698841948054085 44.064780108762825 0 0 0
157 53 2 0.4238 1.6656840375959592 5.0270693861535145 44.13642938975492 0 0 0
368 123 2 0.4238 9.141736069947825 1.3838630802016363 39.274275099932304 -2 3 0
369 123 3 -0.8476 8.835757935615757 1.99133917730721 38.53523433293278 -2 3 0
172 58 2 0.4238 8.980118473014354 4.07993451805228 39.282310084671074 1 -2 0
36 12 3 -0.8476 9.816547740105923 14.712919004918296 40.04161286883668 -2 0 0
179 60 2 0.4238 13.775217858261595 14.60109395491811 39.59790816902904 -5 0 0
180 60 3 -0.8476 13.770039893322854 0.32489047460752113 38.90453643983195 -5 1 0
108 36 3 -0.8476 0.10149268410647493 6.52392450896723 41.07914448899931 -3 -1 0
46 16 2 0.4238 9.53100674351124 3.678529295049505 44.05991890954909 -1 3 0
5 2 2 0.4238 13.309834198644849 5.82722623249211 41.74187097310908 -4 0 0
47 16 2 0.4238 8.058189807084336 3.7758446859856205 43.62712497767135 -1 3 0
178 60 2 0.4238 13.505022056585876 1.097131943445467 39.39119695465794 -5 1 0
6 2 3 -0.8476 12.375553833181925 5.75921426983734 41.96391036392084 -4 0 0
20 7 2 0.4238 11.651190802337986 5.895287499839382 40.37698362289118 1 2 0
439 147 2 0.4238 10.267700386350356 7.438207832607881 38.611149940374005 0 -3 0
4 2 2 0.4238 12.28031574527071 6.4456210981439295 42.68152757094948 -4 0 0
19 7 2 0.4238 11.639122313137221 5.012503964174127 39.091330054074255 1 2 0
21 7 3 -0.8476 11.164425652094813 5.802643123859256 39.52540639620417 1 2 0
484 162 2 0.4238 11.061219065758657 0.7903676263021251 42.717390982916164 -3 2 0
106 36 2 0.4238 0.3283014232793075 5.862357441219339 40.327357376277725 -3 -1 0
486 162 3 -0.8476 10.86265206876944 14.82399087313097 42.54045655991827 -3 1 0
344 115 2 0.4238 14.017151474699356 3.2749462061353447 40.2746987514014 -6 -2 0
173 58 2 0.4238 9.595301607295768 5.286263959857739 39.77047517725508 1 -2 0
343 115 2 0.4238 12.869157754556111 2.8321777000566426 41.343039551810215 -6 -2 0
35 12 2 0.4238 10.116981887967155 14.969084714212796 40.974768741021414 -2 0 0
345 115 3 -0.8476 13.362035126327651 2.5596908164272567 40.464814926241345 -6 -2 0
174 58 3 -0.8476 8.718472739821086 4.860494480352258 39.78575453954194 1 -2 0
303 101 3 -0.8476 4.766892999508218 0.6146447622527369 42.38410319961951 0 4 0
149 50 2 0.4238 0.05557407120009299 10.557384657090271 38.41490334449738 2 -2 0
29 10 2 0.4238 3.764992222294162 11.707667652017914 44.46527787049196 2 0 0
301 101 2 0.4238 4.6670222264180525 0.7633612831482253 41.4457282756552 0 4 0
76 26 2 0.4238 1.1131095882339794 12.203095842890018 43.34925853766751 -2 0 0
78 26 3 -0.8476 1.0832561745427842 11.544636509541283 42.62468251120783 -2 0 0
302 101 2 0.4238 4.93993131659605 14.663978312295837 42.341134086499075 0 3 0
381 127 3 -0.8476 6.942763834108807 10.747882627473652 40.79014016741675 1 -4 0
380 127 2 0.4238 6.09260921002641 10.35582285417527 40.63282345104812 1 -4 0
451 151 2 0.4238 2.583392827521364 12.152146250946664 41.422839718872346 -2 0 0
452 151 2 0.4238 3.9400021323056 12.098888092097278 42.06953623155557 -2 0 0
30 10 3 -0.8476 4.512564577685554 12.00292272155086 43.81985395983308 2 0 0
104 35 2 0.4238 7.216485113858363 9.217519118719183 43.51339751665248 -2 1 0
86 29 2 0.4238 2.3519526004131994 9.244857709878088 38.69772349842804 5 3 0
403 135 2 0.4238 6.526088887375039 7.435527494017866 39.77566348988877 -1 2 0
469 157 2 0.4238 3.902836369830255 9.128352851762669 40.447068437036094 4 1 0
87 29 3 -0.8476 1.467555977301258 9.036031620943103 38.31867828208797 5 3 0
453 151 3 -0.8476 3.5401335935166074 12.149871675389985 41.169491065221614 -2 0 0
166 56 2 0.4238 0.534883210895122 13.931071308499178 40.70063577002844 -1 1 0
470 157 2 0.4238 3.9043838377071065 10.695673791441854 40.1468885745944 4 1 0
471 157 3 -0.8476 4.186324337518753 9.810911325270954 39.82954248181268 4 1 0
176 59 2 0.4238 6.8010670362604735 14.206996356703531 40.03005497418724 2 2 0
119 40 2 0.4238 1.0932023163676436 14.688141870147449 43.2575995603467 -2 -2 0
150 50 3 -0.8476 14.474290726521867 10.98273375285077 39.07881889395619 1 -2 0
40 14 2 0.4238 1.2728600561978043 9.773290985163248 43.06170546863163 -2 4 0
42 14 3 -0.8476 1.512928857952904 8.894724767222883 43.32177323193365 -2 4 0
28 10 2 0.4238 5.173474122489045 11.269052461067208 43.72347488975113 2 0 0
494 165 2 0.4238 2.520360328006277 14.255195459284206 37.08352697852034 -2 1 0
396 132 3 -0.8476 5.787222092041426 10.23451405572317 37.640357277200714 -1 -3 0
395 132 2 0.4238 5.44087295124162 10.057339242262122 38.489786140345764 -1 -3 0
394 132 2 0.4238 5.060498889665636 10.59620715366969 37.1649899128871 -1 -3 0
400 134 2 0.4238 2.263172123313136 0.40028513657590986 41.46397721198965 -1 0 0
402 134 3 -0.8476 1.2913255663009584 0.3180932259735789 41.415297021945605 -1 0 0
220 74 2 0.4238 4.25508982754914 14.198356994858367 39.488624121440964 0 -1 0
358 120 2 0.4238 6.759664770548727 11.794137384140639 37.43676197483481 0 1 0
77 26 2 0.4238 0.2320405668518233 11.746872239270546 42.132113696917216 -2 0 0
167 56 2 0.4238 0.037683139587890935 12.629956534422801 39.808749156553986 -1 1 0
168 56 3 -0.8476 14.77056223259306 13.315467652375016 40.46682951645334 -2 1 0
177 59 3 -0.8476 7.391106291339236 13.500506331525905 39.884152409975 2 2 0
175 59 2 0.4238 7.4215164225251335 13.414140860072504 38.93954481235892 2 2 0
360 120 3 -0.8476 7.322853650466559 12.581139286677265 37.23053846287563 0 1 0
243 81 3 -0.8476 8.936724856035221 11.189448798809877 43.00377149927931 2 0 0
242 81 2 0.4238 8.008998723714509 11.172715758699661 42.67308216526506 2 0 0
535 179 2 0.4238 9.273582319870721 8.471606841141732 40.11187257567399 0 2 0
277 93 2 0.4238 10.344713804850235 10.988408833662044 39.89619372539683 -2 -1 0
279 93 3 -0.8476 10.742056161493728 10.538303088867364 40.65507246339411 -2 -1 0
278 93 2 0.4238 10.191352563289735 10.660895528601868 41.47571555608528 -2 -1 0
424 142 2 0.4238 14.18964802876677 9.954439336242784 40.91882527719857 0 3 0
426 142 3 -0.8476 13.574623055212378 9.4968538115272 41.4621929996501 0 3 0
425 142 2 0.4238 12.64481973390653 9.675727659720778 41.11389874508668 0 3 0
536 179 2 0.4238 8.003766453642989 9.265626441864368 40.70809576096816 0 2 0
537 179 3 -0.8476 8.498331520147362 8.375612434627877 40.73266064280341 0 2 0
507 169 3 -0.8476 13.28441435386575 13.982189705381014 42.7099274732684 -2 -5 0
505 169 2 0.4238 13.329300265907868 13.354852549642066 43.55249808948625 -2 -5 0
197 66 2 0.4238 10.745789177592046 12.527727147146674 37.84783084344683 1 2 0
359 120 2 0.4238 8.233515396659854 12.198321629923964 37.05121638047689 0 1 0
196 66 2 0.4238 10.804665081287459 10.961607223761016 37.61878349081933 1 2 0
198 66 3 -0.8476 10.247983966666807 11.680207268531605 37.98959304637964 1 2 0
107 36 2 0.4238 14.859873649388996 7.419098931848914 40.68359097907808 -4 -1 0
379 127 2 0.4238 7.032853539679361 11.611310875590219 40.37616235346473 1 -4 0
241 81 2 0.4238 9.088985582042632 12.094585158338141 43.27480482841392 2 0 0
506 169 2 0.4238 13.835204592964171 13.525916577304496 42.07179252088448 -2 -5 0
466 156 2 0.4238 8.775600740086896 8.281550759994913 42.47628319562062 1 -2 0
148 50 2 0.4238 13.596808760810207 10.80905637410465 38.72673584499081 1 -2 0
510 170 3 -0.8476 11.111869480955644 0.2918013704687616 37.47466543249789 0 2 0
55 19 2 0.4238 11.40325103278644 9.144902447230184 37.74894481176937 -1 3 0
57 19 3 -0.8476 12.096063058422741 9.711061158067286 37.40841976290155 -1 3 0
485 162 2 0.4238 11.779378751692409 14.340898540537072 42.462891193124314 -3 1 0
431 144 2 0.4238 5.065593300066291 4.672091765008654 48.05271365888629 -1 1 0
475 159 2 0.4238 6.356504779454583 1.8994355848671924 46.16204112523225 3 -12 -1
477 159 3 -0.8476 5.470975340449932 2.317769037520364 46.16409841647951 3 -12 -1
481 161 2 0.4238 2.8176244530046333 4.866261022576756 47.4108666393301 -4 -2 0
432 144 3 -0.8476 4.301244237451668 4.0519602180952115 48.24166190193104 -1 1 0
430 144 2 0.4238 4.459284340452309 3.386546885816377 47.482820978755676 -1 1 0
284 95 2 0.4238 1.0831245129190439 1.6345250967015514 49.26043663949876 0 0 0
43 15 2 0.4238 0.5013600774226991 1.8160761536513854 46.54328405657322 2 2 0
482 161 2 0.4238 1.495410424017438 4.17767601134458 46.819099800459554 -4 -2 0
44 15 2 0.4238 1.8026574787001746 1.7871672021214937 45.72989916422812 2 2 0
45 15 3 -0.8476 0.9140868787226045 2.1897774604931493 45.71556400517621 2 2 0
483 161 3 -0.8476 1.9631246284046058 5.012981373148623 46.88526507187006 -4 -2 0
170 57 2 0.4238 13.547522730200514 5.893322163831117 46.04882847137707 -4 3 0
328 110 2 0.4238 6.008165162584508 4.335207428042669 45.49251889493213 -1 -2 0
285 95 3 -0.8476 0.3205837405784339 1.5681738951942534 48.62879787267267 0 0 0
283 95 2 0.4238 0.042296494614976865 0.592912957092332 48.45565284664645 0 0 0
330 110 3 -0.8476 5.820453549351688 5.252295856969334 45.496393761063544 -1 -2 0
329 110 2 0.4238 5.5739206984439225 5.5064680772824195 44.58810966460682 -1 -2 0
171 57 3 -0.8476 13.322604364426304 5.024059807942432 46.46737068375919 -4 3 0
67 23 2 0.4238 8.211707062399258 1.6883418027129053 44.851837849371805 0 2 0
69 23 3 -0.8476 7.89143006624192 0.9561824465111952 45.44578393501545 0 2 0
252 84 3 -0.8476 6.401164753678957 5.924284225074327 48.143293284162716 4 -2 0
71 24 2 0.4238 5.043314873210605 7.180621901111711 47.4704109805686 -2 3 0
250 84 2 0.4238 7.094968860317627 5.722221507667987 47.486401932540005 4 -2 0
70 24 2 0.4238 3.6289190706875805 7.693217920381749 47.51092514707664 -2 3 0
419 140 2 0.4238 0.4898494295867954 2.385991772296346 43.85903574764673 -1 0 0
169 57 2 0.4238 12.76813182663349 5.260263556928247 47.29751054232373 -4 3 0
72 24 3 -0.8476 4.45879369772519 7.931217346869035 47.20225867173948 -2 3 0
158 53 2 0.4238 2.831057870911742 5.405408932957784 45.05909876588079 0 0 0
229 77 2 0.4238 3.1085246951008827 3.0304003521378253 43.82396759120011 0 0 0
133 45 2 0.4238 12.06674251394774 3.189466291210334 43.962638860928486 -2 0 0
224 75 2 0.4238 8.501386699404595 4.452024266600567 46.13811211344809 0 -1 0
282 94 3 -0.8476 7.730782950912431 7.3212384242780795 45.68847156778783 2 3 0
436 146 2 0.4238 11.747868406912662 8.326205207114928 50.15066981139682 -3 1 0
92 31 2 0.4238 12.244185689996943 6.489513083817134 49.186559803381684 -3 -2 0
91 31 2 0.4238 11.003208625556672 5.694000653227591 48.96054527547655 -3 -2 0
68 23 2 0.4238 8.664665555906785 0.4545444869673532 45.86201044224995 0 2 0
317 106 2 0.4238 10.839027557615282 3.4906686353920775 49.11385941772375 1 1 0
294 98 3 -0.8476 13.316453063114514 0.12314635560104747 47.23415691931735 -2 -2 0
225 75 3 -0.8476 8.702020554063528 5.031572300764797 46.959736791370325 0 -1 0
251 84 2 0.4238 6.874767930440047 5.792949137394296 48.975560886437606 4 -2 0
265 89 2 0.4238 10.746108403894215 14.418284342162012 46.897091769636134 -2 -3 0
223 75 2 0.4238 9.141574826441502 5.9170294142463815 46.72715461365574 0 -1 0
88 30 2 0.4238 11.422356151542782 7.74020059556378 47.60040529363917 1 -1 0
444 148 3 -0.8476 12.981416275396231 2.5876923381335692 45.53327209098705 1 0 0
443 148 2 0.4238 13.251775789845201 1.882423663924836 46.13887242028082 1 0 0
442 148 2 0.4238 13.387917307203166 3.4460936200627375 45.85490899064323 1 0 0
293 98 2 0.4238 12.725129996198621 0.20917816313981993 48.0702332838628 -2 -2 0
266 89 2 0.4238 10.36736797283676 0.8923342744993753 47.388535543538595 -2 -2 0
292 98 2 0.4238 13.104727879353936 14.296540800249929 46.8051228133421 -2 -3 0
93 31 3 -0.8476 11.660203973564096 6.231873926470328 48.46612972125043 -3 -2 0
267 89 3 -0.8476 10.147412968597662 0.21907707184822778 46.710067085060494 -2 -2 0
188 63 2 0.4238 10.319750666252975 3.500659212596596 47.17623213373612 0 -6 0
90 30 3 -0.8476 11.545224786542027 8.618859035778165 47.15389303612317 1 -1 0
89 30 2 0.4238 11.016204823289288 8.489164350908881 46.29216547369573 1 -1 0
187 63 2 0.4238 11.629445537235865 2.8108258192984144 46.58016148398383 0 -6 0
14 5 2 0.4238 11.306031029344915 14.742269071449678 50.08318163049328 3 1 0
189 63 3 -0.8476 10.959389023027612 2.8505864031580965 47.38596498303303 0 -6 0
15 5 3 -0.8476 12.223221429989422 0.1828982706863861 49.87520929126399 3 2 0
113 38 2 0.4238 9.82307541780488 14.075716288890693 43.720989295978 4 0 0
48 16 3 -0.8476 8.64075507884915 3.577102789556861 44.4402649861667 -1 3 0
120 40 3 -0.8476 1.1352274514223786 14.217807533187882 44.16259804278059 -2 -2 0
388 130 2 0.4238 4.610034320116789 10.538413987650394 49.99932491554081 -1 2 0
311 104 2 0.4238 1.2988800734032182 13.605609447258608 49.67275650888301 -3 -2 0
374 125 2 0.4238 6.4650174272135175 14.42169196657901 45.27983083238653 -4 0 0
518 173 2 0.4238 1.1326218787497617 8.296814269073295 47.845917866154274 3 -1 0
375 125 3 -0.8476 6.4134030398275375 13.442258958740567 45.35780439211108 -4 0 0
476 159 2 0.4238 4.790219473732312 1.7408213454564105 45.80117423200615 3 -12 -1
352 118 2 0.4238 3.1262724986998442 14.69143717451496 44.79573202312878 -1 -2 0
519 173 3 -0.8476 1.5439832715843662 7.736893397047545 47.14836315137391 3 -1 0
62 21 2 0.4238 2.953343144424163 12.923443395044417 47.957120887572195 -2 1 0
41 14 2 0.4238 0.8448540861745386 8.311975021886639 43.64009563623676 -2 4 0
144 48 3 -0.8476 1.1088776466173726 10.020211293124165 48.82205157595542 0 -1 0
143 48 2 0.4238 2.0431106024578263 10.485523071538486 48.82786139552654 0 -1 0
373 125 2 0.4238 5.659696305656953 13.215508471683592 44.7557447760664 -4 0 0
103 35 2 0.4238 5.703621093900079 9.279291800944304 43.90529190614842 -2 1 0
105 35 3 -0.8476 6.5161333185883255 9.778836221915876 43.75616294327684 -2 1 0
497 166 2 0.4238 3.8696569439857456 7.52569387523303 43.5969742341053 3 2 0
211 71 2 0.4238 5.76570026182689 13.094258012471386 48.3894423305564 1 1 0
389 130 2 0.4238 5.448141476629475 10.27645969577164 51.314257083343016 -1 2 0
517 173 2 0.4238 1.6504742312808294 6.73207310835406 47.27342927191061 3 -1 0
498 166 3 -0.8476 4.756865153762628 7.62853501095258 43.99291038675175 3 2 0
496 166 2 0.4238 4.564466799924114 7.612647120841811 45.00057527321997 3 2 0
160 54 2 0.4238 4.707456407498611 9.80814674657814 47.889065808658934 0 2 0
183 61 3 -0.8476 14.586235053207767 7.223190361265235 45.24758507282814 1 -5 0
162 54 3 -0.8476 4.084869837839347 10.565503960556638 48.21540682885837 0 2 0
161 54 2 0.4238 4.665561200663088 11.3626639186991 47.979104783655536 0 2 0
61 21 2 0.4238 1.6093510353896212 12.765101565255103 47.25583586979614 -2 1 0
354 118 3 -0.8476 3.7248268804703586 0.11696521564454886 45.43710702523618 -1 -1 0
353 118 2 0.4238 3.624512447651951 14.520521455803625 46.18433664885141 -1 -2 0
63 21 3 -0.8476 2.050469160664073 13.274380747076146 47.9785251919708 -2 1 0
232 78 2 0.4238 2.4864617013003687 9.624882740822338 44.53853449744731 -3 6 0
422 141 2 0.4238 7.127952692826662 9.213863086271207 46.62468790977266 2 -1 0
234 78 3 -0.8476 2.8763879240009187 10.295444461360697 45.19439084097822 -3 6 0
233 78 2 0.4238 3.1348089417408014 9.934245413059127 46.0286507844678 -3 6 0
16 6 2 0.4238 1.3303854900584684 11.028514328068791 45.78213949882622 2 3 0
213 71 3 -0.8476 5.114779778656067 12.92358965663094 47.64247165768155 1 1 0
421 141 2 0.4238 7.0046072842329306 10.38465597605443 45.69146965020969 2 -1 0
423 141 3 -0.8476 6.998808535879292 10.18045375773804 46.66362295936853 2 -1 0
181 61 2 0.4238 0.35383485634703693 7.310482347544798 45.942711153544835 2 -5 0
212 71 2 0.4238 5.542755766764238 13.079151427955654 46.778054722802345 1 1 0
118 40 2 0.4238 0.8031070295854981 14.993110895733317 44.71385407361236 -2 -2 0
437 146 2 0.4238 12.096291915094348 8.094777386626124 51.6520476894815 -3 1 0
465 155 3 -0.8476 11.389222060849978 7.2043359809332586 44.26796080723902 3 1 0
463 155 2 0.4238 12.009520405030077 7.946630024306155 44.28952179106953 3 1 0
281 94 2 0.4238 8.265101248077364 7.65131933303453 44.91391413385447 2 3 0
464 155 2 0.4238 10.485595247996711 7.568068330942872 44.09858922370951 3 1 0
112 38 2 0.4238 8.41895630407707 13.807552330422798 44.52778259163767 4 0 0
438 146 3 -0.8476 12.470551945785836 8.524018945157984 50.81559172522033 -3 1 0
13 5 2 0.4238 12.723722182870109 14.53492358496231 50.42440233042041 3 1 0
18 6 3 -0.8476 0.6081913922763703 11.71081018684578 45.96828361221903 2 3 0
17 6 2 0.4238 14.951933409740219 11.329521989825112 46.647428776466285 1 3 0
435 145 3 -0.8476 12.969988132672098 11.331857776540726 50.073401700918666 -3 1 0
434 145 2 0.4238 13.426072957702708 11.8343630563461 50.75931757768387 -3 1 0
299 100 2 0.4238 13.11066772625526 9.254736765525175 43.246091942807595 -1 0 0
182 61 2 0.4238 14.038072085347935 7.97702685304758 45.22474217801276 1 -5 0
131 44 2 0.4238 10.866995765905779 11.990732640055658 46.87123651979695 3 2 0
114 38 3 -0.8476 9.358010174651529 13.446499580454185 44.336898987012354 4 0 0
184 62 2 0.4238 14.170605799191296 10.084209254516024 47.92101513863484 -2 -3 0
300 100 3 -0.8476 12.89349967660137 9.219227345453332 44.16710600971015 -1 0 0
132 44 3 -0.8476 11.303208571815373 12.637237938581372 46.25944866873005 3 2 0
130 44 2 0.4238 10.560834080363108 12.896411199464891 45.65605919176183 3 2 0
280 94 2 0.4238 7.357042508961477 6.465837237337311 45.37046742440127 2 3 0
467 156 2 0.4238 9.171701490615806 9.608362991557655 43.307860313959864 1 -2 0
468 156 3 -0.8476 9.002915234461518 8.571797350498784 43.405076696027756 1 -2 0
206 69 2 0.4238 10.739942677353586 9.862580433371043 47.932299027973414 -3 0 0
298 100 2 0.4238 12.76235819726859 10.14371467471422 44.46123182928495 -1 0 0
185 62 2 0.4238 13.8408708495078 11.518888970869963 48.32493986387272 -2 -3 0
186 62 3 -0.8476 13.844906188215525 10.920009784801927 47.55160877807697 -2 -3 0
82 28 2 0.4238 7.503874593697399 10.429207509277951 48.21900178657656 -3 -2 0
84 28 3 -0.8476 7.728972428913937 10.44567735003719 49.20326559079876 -3 -2 0
116 39 2 0.4238 7.3059640532802375 12.180876183943585 49.66015359744607 -1 -1 0
205 69 2 0.4238 11.123631874547092 11.039558044648935 48.86403633705473 -3 0 0
207 69 3 -0.8476 10.40324996438565 10.772528761083766 48.29794015267632 -3 0 0
480 160 3 -0.8476 13.287532160901286 11.993866688250531 44.57201720171955 -4 3 0
83 28 2 0.4238 8.723057604955484 10.4574463217977 49.09682713833452 -3 -2 0
479 160 2 0.4238 14.228806143977906 11.820461916145337 44.93440806874544 -4 3 0
478 160 2 0.4238 12.749306153966483 12.255868175985905 45.32578908120496 -4 3 0
115 39 2 0.4238 8.094596402888193 13.048804012550894 48.73523292227115 -1 -1 0
117 39 3 -0.8476 7.371653669056992 13.090783810381156 49.397695893088546 -1 -1 0
109 37 2 0.4238 3.765843817744891 5.987707414699119 50.45249579169185 -4 -2 0
145 49 2 0.4238 2.482204492318885 14.90292745259906 53.2126042179288 2 1 0
257 86 2 0.4238 3.579167679000721 1.2553560833682837 50.071626121271144 -2 -1 0
258 86 3 -0.8476 2.578199073910513 1.1871553361895597 50.345981415322626 -2 -1 0
244 82 2 0.4238 5.950836148423388 0.7907374017020626 49.87328220113484 2 1 0
246 82 3 -0.8476 5.172406693429057 0.9814771239655865 50.52160059512867 2 1 0
530 177 2 0.4238 3.9414020793036455 3.2247770825334556 50.93501649308253 -4 -2 0
53 18 2 0.4238 1.9055168300973149 14.993294880943873 57.14493237178322 0 3 0
54 18 3 -0.8476 1.6692896106281763 0.870055954485975 56.804032324502124 0 4 0
122 41 2 0.4238 7.641929807691444 7.556824757520523 50.5078562951308 -1 -3 0
245 82 2 0.4238 5.0731357173552 0.1394511451402777 51.04006892985424 2 1 0
52 18 2 0.4238 1.8403538555020824 1.0047718815943283 55.82939194413113 0 4 0
39 13 3 -0.8476 6.033159201707593 2.656139365199608 56.569632805749904 -3 -2 0
310 104 2 0.4238 1.6853516276636933 14.761778851334356 50.687976834861516 -3 -2 0
128 43 2 0.4238 7.572701314605009 2.9688355139409373 53.02986481086427 3 2 0
140 47 2 0.4238 2.927574787238145 5.356411927085253 53.79639062912291 3 -3 0
449 150 2 0.4238 7.262036771111206 3.62995876214663 50.07888096337014 4 4 0
139 47 2 0.4238 3.7950888124651487 5.330874926498766 55.12071032852969 3 -3 0
256 86 2 0.4238 2.5371777192015426 1.7564544148161487 51.11818667436563 -2 -1 0
141 47 3 -0.8476 3.9115296361824545 5.206827156149162 54.13901914470097 3 -3 0
75 25 3 -0.8476 1.1227190853851898 3.5910325926951283 57.8300968176474 3 2 0
74 25 2 0.4238 0.35169574472559234 4.11709406240581 57.7452961370639 3 2 0
260 87 2 0.4238 7.005945626101629 0.5004625667375012 53.88055348533136 -2 -1 0
73 25 2 0.4238 0.9753846353731087 2.748554669461117 57.32810848509124 3 2 0
146 49 2 0.4238 3.1736083732117404 1.2634851835836962 53.75840723226298 2 2 0
147 49 3 -0.8476 2.3270547523632072 0.7050714065601293 53.73924601501783 2 2 0
370 124 2 0.4238 0.7219178129346158 5.876933690734855 53.54490807156059 0 -3 0
226 76 2 0.4238 5.39858666441918 2.4828198002464035 53.84050655759282 -1 -5 0
228 76 3 -0.8476 4.42812943220234 2.516944284178773 54.26642091532602 -1 -5 0
326 109 2 0.4238 1.4861339264254172 4.57002458321505 51.0168007647728 2 -3 0
325 109 2 0.4238 1.9261834671302382 4.627518145444173 49.54054735376373 2 -3 0
327 109 3 -0.8476 1.1155078330815726 4.651843169462619 50.12180241951313 2 -3 0
531 177 3 -0.8476 3.6771258495845354 3.969590424096289 51.51609654896796 -4 -2 0
529 177 2 0.4238 4.218434603660709 3.8370336249264616 52.39353596512778 -4 -2 0
227 76 2 0.4238 4.1726575802142865 3.5111680120733078 54.262433105221604 -1 -5 0
163 55 2 0.4238 6.486131797971567 6.221441759637784 52.87969468320609 -1 1 0
372 124 3 -0.8476 1.347525744578043 5.127425371621375 53.38497733860978 0 -3 0
371 124 2 0.4238 0.9203229605656108 4.294056423782631 53.67882091273769 0 -3 0
355 119 2 0.4238 0.09271981001629648 6.074780286510532 49.702889294690536 -1 -4 0
129 43 3 -0.8476 6.960308438205136 2.2240240203165826 53.061856267809915 3 2 0
268 90 2 0.4238 0.906969824740713 1.6710081473675797 53.51456198655868 1 0 0
427 143 2 0.4238 13.555324366570819 7.035771387441599 55.26546887580409 1 -2 0
448 150 2 0.4238 8.718364431798902 4.023420739195631 50.502086577080846 4 4 0
238 80 2 0.4238 8.494138716254913 2.146215043455858 48.91712416795569 -4 0 0
297 99 3 -0.8476 13.778953936980017 2.2923703953915244 50.78872364510432 2 6 0
269 90 2 0.4238 14.593400706144386 1.9578167504971349 52.684153157283355 0 0 0
263 88 2 0.4238 11.727840776418336 2.3578774047378963 53.455269776719625 -2 3 0
264 88 3 -0.8476 11.656700590260884 3.2144943789208527 53.99178041810247 -2 3 0
262 88 2 0.4238 10.705519489338965 3.2899703930447255 54.13950853676462 -2 3 0
201 67 3 -0.8476 14.116824358033735 6.938046897153624 52.769618675923226 -1 3 0
286 96 2 0.4238 12.262569816390968 4.227368672666728 52.52079676234137 -1 3 0
415 139 2 0.4238 12.676891882384526 2.070999447312783 55.73496491310429 -7 3 0
417 139 3 -0.8476 13.613411779745217 1.9028108932997394 55.9882012548188 -7 3 0