LAMMPS data file via write_data, version 28 Mar 2023, timestep = 20000, units = metal

384 atoms
3 atom types

0 15.72 xlo xhi
0 15.72 ylo yhi
0 15.72 zlo zhi

Masses

1 12.0107
2 2
3 15.9994

Atoms 

120 40 3 -0.8476 3.8947374253080342 15.134584786040408 15.645102516978948 1 -1 0
173 58 2 0.4238 0.2345874860631313 1.280775348119286 15.596811745013298 3 -1 0
359 120 2 0.4238 4.441614657792522 6.54003033339534 0.823594141622373 0 -2 2
230 77 2 0.4238 2.8540699475307347 1.0305381833408596 8.335664117570056 -2 2 -4
265 89 2 0.4238 2.6243904997439 5.738326892301301 2.13930600733148 -2 1 2
266 89 2 0.4238 2.6583028624620626 4.445009637167155 1.198095929601944 -2 1 2
267 89 3 -0.8476 3.2052831442292624 5.170984420192554 1.5517091206752396 -2 1 2
366 122 3 -0.8476 15.59848106634187 0.23477235497564256 7.796076277015756 0 0 1
360 120 3 -0.8476 4.925255237378447 7.390485561456837 0.8195521132493665 0 -2 2
150 50 3 -0.8476 4.091714297494725 2.1699806400684394 14.898298203117442 0 -1 0
364 122 2 0.4238 0.8194224362489227 0.032509403911087024 7.901934875119158 1 0 1
231 77 3 -0.8476 2.574203864588888 0.21801440218282161 7.9543561173847745 -2 2 -4
149 50 2 0.4238 3.934123098025234 1.253995251040777 15.131047131922406 0 -1 0
229 77 2 0.4238 2.9041998142011933 0.33806981623690113 7.065880927618727 -2 2 -4
95 32 2 0.4238 3.2435401222516784 15.625460975096694 4.723451668158574 0 0 -2
365 122 2 0.4238 15.654661440951726 1.0554021501270587 7.227967711822228 0 0 1
192 64 3 -0.8476 6.366511694852539 1.9078149849124748 6.273050144390302 -1 0 0
190 64 2 0.4238 7.146833650524018 2.4807105368752542 6.145259485115127 -1 0 0
255 85 3 -0.8476 14.883527684213469 2.730928567954778 6.451927904818446 -3 0 -2
253 85 2 0.4238 14.088573519676936 2.367638407949869 6.067927068754065 -3 0 -2
191 64 2 0.4238 5.630028709669834 2.3492340583538827 5.923260902150561 -1 0 0
254 85 2 0.4238 15.321675027609022 3.111176621732209 5.654117448046916 -3 0 -2
215 72 2 0.4238 3.3290110600998672 2.532141746356073 6.325687730865501 2 0 -2
216 72 3 -0.8476 3.548799363606857 3.162685647382415 5.574800857254147 2 0 -2
214 72 2 0.4238 3.564822734784131 4.055722785269837 5.841387420962699 2 0 -2
103 35 2 0.4238 1.917975480925566 7.757838727667509 5.775260433045964 -1 2 0
104 35 2 0.4238 3.118664097809554 6.878947004214407 5.445662629254019 -1 2 0
105 35 3 -0.8476 2.1531273524553467 6.92162029615334 5.352476071529208 -1 2 0
220 74 2 0.4238 4.226740752838785 4.379473246462351 2.547273457680712 -3 0 0
221 74 2 0.4238 4.379427517536729 3.5779164178188125 3.872217187328565 -3 0 0
169 57 2 0.4238 2.775974247525101 2.671210516766631 0.13525726289511486 1 0 2
25 9 2 0.4238 7.655523924354598 2.213438734875049 3.436068187208329 2 2 -3
222 74 3 -0.8476 4.901689921519307 3.937584044705085 3.16816231034305 -3 0 0
182 61 2 0.4238 5.7410371350994565 2.2417521247522427 2.6705488713594256 1 0 2
183 61 3 -0.8476 6.1911957566477005 1.3901222087905614 2.545954684554136 1 0 2
274 92 2 0.4238 4.005671766344918 5.8528040035705775 7.596013320312753 1 -1 0
181 61 2 0.4238 6.5674348552053035 1.3864071002829046 1.6026445827593445 1 0 2
275 92 2 0.4238 5.4316842242951076 5.965970606870851 6.983912222567562 1 -1 0
276 92 3 -0.8476 4.3939114024690475 5.797424191937114 6.702431015913251 1 -1 0
8 3 2 0.4238 1.2015906427394512 1.9495377969099486 2.097419205263417 1 2 -1
9 3 3 -0.8476 0.8254295365805073 1.7777100815312747 2.9587591732196112 1 2 -1
7 3 2 0.4238 0.8086122738220126 2.669043318324512 3.4045043676828195 1 2 -1
292 98 2 0.4238 15.655521548331537 8.978565137368998 6.535044290969773 -1 -1 1
82 28 2 0.4238 0.12769333373969644 5.035477461921731 3.667897938731617 2 1 0
83 28 2 0.4238 1.2487893980568001 4.69057585062242 4.735211058987856 2 1 0
353 118 2 0.4238 6.02345196765335 5.47520179727754 2.932352394653246 0 -1 0
294 98 3 -0.8476 0.6622723441420816 8.822675682345464 7.186842866735568 0 -1 1
293 98 2 0.4238 0.5116578150864337 7.984375893634883 7.690238897382127 0 -1 1
171 57 3 -0.8476 2.0357558125583033 2.954404903825276 0.754676586843339 1 0 2
84 28 3 -0.8476 0.6396763094768193 4.30789820959936 4.1341076813799384 2 1 0
354 118 3 -0.8476 6.810871217212427 6.014387679109877 2.8461097689426134 0 -1 0
352 118 2 0.4238 6.468339926718144 6.6958481072366585 2.2694958664844385 0 -1 0
27 9 3 -0.8476 8.580569369939111 2.3183436251479965 3.7784000504291226 2 2 -3
347 116 2 0.4238 8.18036503979177 4.4794426703628005 6.698992406065794 -3 3 -2
97 33 2 0.4238 7.933254690748519 4.844287628576403 2.1286171867146795 -2 -2 2
337 113 2 0.4238 13.696714820010206 7.849710121895342 7.960353138172542 -1 -1 1
200 67 2 0.4238 0.14267949154035264 6.896307883171671 15.66028351235495 3 0 0
245 82 2 0.4238 8.780984384123805 0.9192587713488165 4.470076836259577 0 1 0
201 67 3 -0.8476 15.092503268490727 6.506037691472167 0.4019205450825279 2 0 1
218 73 2 0.4238 8.860723165650882 0.30348889558674325 7.795143828366933 0 -1 2
35 12 2 0.4238 12.340226837590814 3.614328802851716 0.35728726370008396 0 -1 2
219 73 3 -0.8476 9.191916285342721 1.1868642265684282 8.042401372474943 0 -1 2
348 116 3 -0.8476 8.537964642433579 3.8592447635409557 6.01831199964302 -3 3 -2
199 67 2 0.4238 15.056958049123805 5.5738071119268975 0.11948787152387406 2 0 1
170 57 2 0.4238 1.2173296927399126 3.031639515471095 0.25988539516268894 1 0 2
295 99 2 0.4238 8.989129874319401 7.929600196837294 5.365374678929513 -3 -2 0
239 80 2 0.4238 14.627373811084869 6.811894797892394 3.792001794817445 0 0 -1
92 31 2 0.4238 8.45139727166369 7.23837547608908 0.2471793592403131 -1 0 -2
26 9 2 0.4238 8.47524665037222 2.9390473820078378 4.523118134371588 2 2 -3
157 53 2 0.4238 14.330589107121407 7.153820422533407 6.076169647492154 -2 -2 -2
159 53 3 -0.8476 14.156829343313767 6.571668127150382 6.815248886440922 -2 -2 -2
146 49 2 0.4238 11.39192803867092 5.40679497855821 7.123982723300868 -2 3 1
4 2 2 0.4238 14.395806090903157 3.3119344684190866 15.58973734900082 2 1 1
6 2 3 -0.8476 15.125985888573787 3.699382078593718 15.02101444841262 2 1 1
346 116 2 0.4238 9.507942945687669 3.7785386185099163 6.195444543247719 -3 3 -2
186 62 3 -0.8476 12.21572699379119 0.4791126910439562 7.100135959112924 3 -3 -2
184 62 2 0.4238 12.569020537314936 15.503516803987637 6.481998153895609 3 -4 -2
158 53 2 0.4238 13.338421472235387 6.147165524733252 6.544471035407365 -2 -2 -2
240 80 3 -0.8476 14.649768176287566 6.078145914233764 3.1842445313923964 0 0 -1
238 80 2 0.4238 14.93305499757062 6.444117707080166 2.3137302500861967 0 0 -1
147 49 3 -0.8476 11.91384982720174 5.40006606517708 6.285065696881092 -2 3 1
36 12 3 -0.8476 12.900413460885785 3.374385900733885 1.1617084546124274 0 -1 2
34 12 2 0.4238 12.512457205455972 2.4916720248666255 1.3934896273647936 0 -1 2
99 33 3 -0.8476 8.757333213472442 4.398906679060921 1.7829921632520709 -2 -2 2
98 33 2 0.4238 9.167437680525255 3.784466591804512 2.4711261217535943 -2 -2 2
32 11 2 0.4238 11.268967183457145 0.41986153291820966 2.0099785700038377 -1 -1 0
33 11 3 -0.8476 12.028958620175494 1.0036075050798552 2.3103731288635534 -1 -1 0
145 49 2 0.4238 11.952432394907726 4.443300981190526 5.965741417929761 -2 3 1
299 100 2 0.4238 11.393025059721381 2.2518772610030395 4.470917288202687 3 -3 1
31 11 2 0.4238 12.73742491715471 0.5529590441445671 2.805156692803705 -1 -1 0
373 125 2 0.4238 10.57338332906232 6.736783925896979 3.8268452364923466 1 -1 0
300 100 3 -0.8476 12.019502765942478 2.5502655762692927 5.225750133171424 3 -3 1
375 125 3 -0.8476 10.5577332424023 7.220271634826524 4.704719785655311 1 -1 0
374 125 2 0.4238 11.048412553882109 6.526592508415071 5.240327872722182 1 -1 0
298 100 2 0.4238 12.036517482326609 1.9124986273475206 5.9185559170364 3 -3 1
129 43 3 -0.8476 10.868701953598904 6.13654787092105 2.153601035620625 -3 3 -1
127 43 2 0.4238 10.111466999578168 5.643574061444849 1.908268117264841 -3 3 -1
128 43 2 0.4238 11.678873461345844 5.662253025061347 2.032436313270372 -3 3 -1
356 119 2 0.4238 15.09848180575255 0.8561354166836584 3.652379706138527 2 0 1
357 119 3 -0.8476 14.377819426867037 0.3185194519859396 4.008707241544743 2 0 1
217 73 2 0.4238 10.144164809370407 1.2707650645175215 7.811321696705962 0 -1 2
226 76 2 0.4238 2.4861476492801637 14.707955011773132 2.5370678692593684 0 -3 2
175 59 2 0.4238 5.012293472181741 9.300999796200855 4.615411743364842 0 0 0
118 40 2 0.4238 4.818338825435989 14.72180229886444 15.668450302902984 1 -1 0
68 23 2 0.4238 3.247197004248972 9.98288270111431 2.6681121891576924 1 -1 -2
321 107 3 -0.8476 4.097307453515191 11.297298028788827 3.5297191507219314 -4 -2 -1
62 21 2 0.4238 5.213335807743566 14.640048311744351 2.6368783338383093 0 -1 2
63 21 3 -0.8476 5.592718157297919 13.707798305823712 2.4943396125207746 0 -1 2
61 21 2 0.4238 6.340131724835207 13.706295848329852 3.0982953963372153 0 -1 2
177 59 3 -0.8476 5.537274422670033 8.503575033931416 4.714263633819482 0 0 0
179 60 2 0.4238 6.027452628158596 10.637438690720556 6.579491022458466 -3 1 2
121 41 2 0.4238 14.983043388089369 13.554478813063257 5.700015945832432 -1 0 2
119 40 2 0.4238 3.6539003086792663 15.286197876136555 0.8486088430217864 1 -1 1
161 54 2 0.4238 5.174973217982135 11.76273501728119 15.464279477413047 -1 1 -1
228 76 3 -0.8476 2.8131894696599655 15.557094618481855 2.7976413794679384 0 -3 2
96 32 3 -0.8476 3.7171776238475007 0.039730171504901074 5.577442386625405 0 1 -2
227 76 2 0.4238 2.0432978272797433 0.43897756096504903 2.885907378197954 0 -2 2
268 90 2 0.4238 7.802755053185087 14.926538218599159 6.216857337063274 -1 2 -2
241 81 2 0.4238 1.7671900921934964 10.484276410070036 0.2550549487302877 0 1 -1
112 38 2 0.4238 2.1783387855454337 7.9215929007870045 2.4874934248242 4 1 0
114 38 3 -0.8476 1.6235899456474525 7.133879228245026 2.7349559292134558 4 1 0
163 55 2 0.4238 3.3967820013494 13.772107794278298 8.44805984901374 3 0 -2
262 88 2 0.4238 1.3218151023535762 12.555963181766298 1.3842317823450787 0 0 0
264 88 3 -0.8476 1.1622269988030665 12.80504682922684 2.3314414427141776 0 0 0
160 54 2 0.4238 6.000652592135591 10.987927891670571 0.7256560489026124 -1 1 0
236 79 2 0.4238 2.2487924581664016 9.890926398030937 6.570452479903869 1 -1 -1
320 107 2 0.4238 4.45816089580037 11.83850808698873 2.8412918675066314 -4 -2 -1
260 87 2 0.4238 8.301092791688182 12.87097580072317 2.902270549729788 1 -1 2
244 82 2 0.4238 8.750914592239527 15.074813500785554 4.212866414758164 0 0 0
261 87 3 -0.8476 8.364635544650817 13.306212464267146 3.794772794864025 1 -1 2
296 99 2 0.4238 7.555044376680395 8.558696275940735 5.588047961990603 -3 -2 0
263 88 2 0.4238 0.33980302502174536 13.33493649007977 2.213292334621514 0 0 0
69 23 3 -0.8476 2.959399440141444 9.400378805909424 1.9331287765809342 1 -1 -2
67 23 2 0.4238 3.811611748196432 9.074737387652442 1.5474776201985856 1 -1 -2
109 37 2 0.4238 3.33211927241527 13.574275474114648 5.4220866108261525 3 -2 0
111 37 3 -0.8476 2.659415200404546 12.975196915675713 5.556218167021123 3 -2 0
243 81 3 -0.8476 1.1964519368783477 11.088726384550315 15.504203591154303 0 1 -2
176 59 2 0.4238 4.84333221441372 7.829168764470614 4.55929777263918 0 0 0
113 38 2 0.4238 1.7995502971308392 7.069041264469882 3.71042098385513 4 1 0
178 60 2 0.4238 4.612446294209332 10.048600773555203 6.985278334964841 -3 1 2
180 60 3 -0.8476 5.592758940212529 10.0350828812358 7.265190823940304 -3 1 2
270 90 3 -0.8476 7.155041187774346 14.903983438382829 6.9786287610234705 -1 2 -2
57 19 3 -0.8476 7.611510546556478 11.65632569684123 1.6046422933948874 0 -1 2
205 69 2 0.4238 6.423775595645264 13.693409258120166 0.6819844649258836 0 -1 3
94 32 2 0.4238 4.633386387414469 0.30551437489595096 5.35410169430995 0 1 -2
162 54 3 -0.8476 5.111354596590454 10.992638281097033 0.31878952318133696 -1 1 0
237 79 3 -0.8476 3.042160285777644 10.091956105540602 6.029967261102686 1 -1 -1
235 79 2 0.4238 3.023785634662607 11.080833041335328 6.033261715532959 1 -1 -1
110 37 2 0.4238 1.8189759423355043 13.495089787226492 5.563068504427439 3 -2 0
319 107 2 0.4238 3.3689529605638975 11.82645604884899 3.917944351830339 -4 -2 -1
123 41 3 -0.8476 0.052679998948476955 14.152221716622948 5.72626100302109 0 0 2
142 48 2 0.4238 9.499077689842848 15.000209832339053 2.263672671967005 -1 -1 -2
122 41 2 0.4238 15.579931704339858 14.754229270972965 6.490886153620163 -1 0 2
189 63 3 -0.8476 11.613271582073821 12.630791476089634 2.6044333066699665 -3 -1 2
187 63 2 0.4238 11.962821103339659 11.775163106425381 2.3421097772619417 -3 -1 2
349 117 2 0.4238 10.711422836078969 13.881166369984454 5.771908204111978 -2 1 0
350 117 2 0.4238 11.576968940807628 13.113645054473858 4.711628455311328 -2 1 0
351 117 3 -0.8476 11.47193394684612 13.272931510791265 5.704624270754576 -2 1 0
47 16 2 0.4238 8.052581985813728 11.774462617890999 6.727459551103916 -2 -1 2
286 96 2 0.4238 13.465222069918054 9.264639891819558 5.083972269496989 -2 0 1
288 96 3 -0.8476 14.380838787434831 8.906698544579791 5.088153113254116 -2 0 1
287 96 2 0.4238 14.68726991036455 9.16515124000025 4.240147770358096 -2 0 1
15 5 3 -0.8476 11.728356599146675 9.78912756420443 4.631181807957377 0 -1 0
324 108 3 -0.8476 9.890530298965752 10.838455665753727 6.900951231668417 2 -1 -1
14 5 2 0.4238 11.367132109801362 8.840731368798842 4.6524820531311155 0 -1 0
322 108 2 0.4238 10.29806027473576 11.304107666690951 6.19888277784714 2 -1 -1
323 108 2 0.4238 9.491012497123073 10.067955925061607 6.489697414539975 2 -1 -1
71 24 2 0.4238 13.990900290683555 12.691048884268957 3.5790775624678566 -1 -1 1
70 24 2 0.4238 14.659301874547443 11.39935581315939 3.9512243477881084 -1 -1 1
246 82 3 -0.8476 8.916001561699403 0.008959637036106471 4.891854959015848 0 1 0
13 5 2 0.4238 12.04336369678235 9.849513128540307 3.670805933076968 0 -1 0
52 18 2 0.4238 13.748249511676645 13.942204981574363 1.128812832476027 -3 0 1
259 87 2 0.4238 8.006322013248411 12.637964005567651 4.422721150215872 1 -1 2
72 24 3 -0.8476 13.944147149743372 11.936928662152855 4.241116038338207 -1 -1 1
54 18 3 -0.8476 14.423113592342357 14.14666073848268 1.7973611403920107 -3 0 1
53 18 2 0.4238 14.980239716640252 14.769364355545935 1.3690515268071086 -3 0 1
66 22 3 -0.8476 15.606901234407081 9.434240544259488 2.6887730968312007 0 -1 1
132 44 3 -0.8476 12.639875016470896 9.7523172907932 1.8656109344877303 1 1 0
377 126 2 0.4238 12.579113885675806 13.039054356607227 6.825773491460069 0 -2 0
64 22 2 0.4238 0.532907578408765 10.02721142598991 2.443165464034949 1 -1 1
188 63 2 0.4238 11.325028869409644 13.033564179584822 1.7689691323293106 -3 -1 2
297 99 3 -0.8476 8.42721550676721 8.494171264213474 6.0230115932108 -3 -2 0
143 48 2 0.4238 9.30939201694852 14.970306248003963 0.7452472398739786 -1 -1 -2
130 44 2 0.4238 13.579362671346892 10.022628564974347 1.9219328403214706 1 1 0
278 93 2 0.4238 8.438110348435615 8.011595027603295 7.917119254262422 -1 -2 2
131 44 2 0.4238 12.604435622974187 9.357393270131828 0.9673853896363045 1 1 0
102 34 3 -0.8476 10.04321779732268 8.43990170199495 0.4855859859158141 -2 -1 0
144 48 3 -0.8476 9.996288025786749 15.134138274407263 1.4283332787263143 -1 -1 -2
65 22 2 0.4238 0.15729851596774616 8.534141877984174 2.7845439172643536 1 -1 1
193 65 2 0.4238 9.690739644291233 9.912122875419778 3.5809153473630966 0 0 2
46 16 2 0.4238 7.087680797511616 12.970127945874992 6.409583268830215 -2 -1 2
195 65 3 -0.8476 9.092485745156168 9.748344403866374 2.8764026072546094 0 0 2
250 84 2 0.4238 12.766920911144311 0.21531720087918624 15.043546469006717 1 1 -2
48 16 3 -0.8476 7.296682612918286 12.04039702157758 6.113274904095197 -2 -1 2
194 65 2 0.4238 9.625088609437247 9.228727568638158 2.2557109834561286 0 0 2
355 119 2 0.4238 14.849162398582667 15.355038557187816 4.528370335672537 2 -1 1
41 14 2 0.4238 14.985422354938663 10.959864538815188 15.447755730146103 1 2 -1
257 86 2 0.4238 8.0846200552158 13.991503812544368 8.588692508146632 -2 0 -2
55 19 2 0.4238 7.999204401352596 10.935214785416305 2.1292939651005005 0 -1 2
56 19 2 0.4238 8.256242251807992 11.669179809502756 0.8082687514503467 0 -1 2
168 56 3 -0.8476 7.2917924193249695 5.593347801646989 11.14302114503832 1 2 -1
273 91 3 -0.8476 3.3296220026778336 2.7874821587557967 8.594096280273897 0 0 0
167 56 2 0.4238 7.631368452211132 4.745586147853157 10.7459367517251 1 2 -1
166 56 2 0.4238 6.348846378139416 5.41133097668144 11.39546846361824 1 2 -1
272 91 2 0.4238 2.6700914832353413 3.3816377332310084 8.999485456323418 0 0 0
301 101 2 0.4238 3.7160780059816254 5.008063548721077 14.920715924661078 1 3 -1
271 91 2 0.4238 4.2919133823591755 2.938197761433583 8.849449658149817 0 0 0
303 101 3 -0.8476 3.8641326980264745 5.913372000174211 14.458922190748087 1 3 -1
285 95 3 -0.8476 0.321077806317741 4.897548850203254 8.366547475613151 2 2 -1
284 95 2 0.4238 0.30537601182764734 4.025767416050603 8.796980584912713 2 2 -1
283 95 2 0.4238 15.32734959554742 4.894383158302499 7.664576200673203 1 2 -1
302 101 2 0.4238 2.967932666417227 6.22029913817451 14.296339079207373 1 3 -1
370 124 2 0.4238 2.126268178470702 5.890591072563928 9.07162029217498 2 1 -1
310 104 2 0.4238 4.358298724814716 3.3886727435371613 12.112950428834022 -2 1 2
312 104 3 -0.8476 4.585390818068782 2.414823836066959 12.283781703972593 -2 1 2
209 70 2 0.4238 6.09046781227686 1.5416243936919598 11.513881277301925 2 2 1
154 52 2 0.4238 6.826321160184067 4.879022379430078 8.673089701183128 -1 1 1
291 97 3 -0.8476 6.05920803883765 2.729320998701811 8.89409416115565 0 2 1
86 29 2 0.4238 4.271706959585702 5.564267166519715 12.824643005667008 0 -1 -2
308 103 2 0.4238 0.7470013938429056 7.4259411870143435 13.808855320802026 4 0 -1
290 97 2 0.4238 6.206448142613998 1.9879309019452231 9.547896111467805 0 2 1
335 112 2 0.4238 15.463541635256377 0.3549588997307677 9.719016312870314 -2 2 0
148 50 2 0.4238 4.166203109576233 2.1710499079094516 13.887878066011668 0 -1 0
336 112 3 -0.8476 0.09409404623711892 0.5962964192081225 10.532705919431539 -1 2 0
156 52 3 -0.8476 7.121287316801659 5.420050034439363 7.889248661217062 -1 1 1
341 114 2 0.4238 8.48653391409509 4.931013751738684 14.434500272988473 -2 2 0
342 114 3 -0.8476 8.497945274609078 4.015834001241628 14.797072021411473 -2 2 0
368 123 2 0.4238 7.428302110269147 2.5253762282039807 15.0947735603146 1 -1 -2
248 83 2 0.4238 0.03608509362804244 6.578319851503705 9.671118327573748 2 -1 -1
224 75 2 0.4238 0.7979050618680414 2.224489202941892 10.737322435477235 0 0 -2
249 83 3 -0.8476 15.672795337920446 7.5009680462613435 9.985445767525263 1 -1 -1
369 123 3 -0.8476 6.797873374662518 1.772060308988634 15.236516186960898 1 -1 -2
307 103 2 0.4238 2.142319789985047 8.034672892015301 14.386638218654953 4 0 -1
225 75 3 -0.8476 1.2485285507588761 3.116309674799331 10.679347613956972 0 0 -2
309 103 3 -0.8476 1.4784853620888485 7.259774149110159 14.464850519874624 4 0 -1
289 97 2 0.4238 6.1729493803733115 2.2133784785587625 8.029435812006108 0 2 1
155 52 2 0.4238 7.526669759212856 6.208917527921678 8.25525388233173 -1 1 1
125 42 2 0.4238 2.0496908487859455 15.696838587451046 10.839305395689477 -2 -2 -1
311 104 2 0.4238 3.8950573648026263 1.8846509756729453 11.86264062370021 -2 1 2
126 42 3 -0.8476 2.6634278740997477 15.66326601569387 11.58493197694712 -2 -2 -1
372 124 3 -0.8476 3.044348453066348 6.183131502398456 9.259375599022876 2 1 -1
208 70 2 0.4238 7.3357572445230605 0.8012211020385775 10.98629478129105 2 2 1
87 29 3 -0.8476 4.4377469481592815 5.0788525237269315 11.905815261271687 0 -1 -2
85 29 2 0.4238 3.7718424252316045 5.51745414690055 11.334333775718024 0 -1 -2
367 123 2 0.4238 5.895988808838356 2.1147618733970637 15.077933459382214 1 -1 -2
362 121 2 0.4238 7.8906696629846245 0.506612343830982 14.700069978206466 0 0 -2
358 120 2 0.4238 4.7769985576526155 7.902338709610835 15.664805335731618 0 -2 1
210 70 3 -0.8476 6.370099590436044 0.8304495408486958 10.895175413771648 2 2 1
91 31 2 0.4238 6.844129526589147 7.0831162672717145 15.687303061506435 -1 0 -3
116 39 2 0.4238 13.77287880883069 7.623172413473974 15.386528464421817 2 -2 -2
185 62 2 0.4238 12.135771856564537 0.14061213831036312 8.034970856492706 3 -3 -2
340 114 2 0.4238 8.670102579871182 4.144518650525671 0.07084056238509717 -2 2 1
316 106 2 0.4238 15.500939763487851 7.717585758194004 11.754244413109827 1 -1 3
17 6 2 0.4238 8.184272977004609 6.726933512918918 12.388072088345023 1 0 -1
223 75 2 0.4238 0.6276905962082678 3.743021929465479 11.119349470233555 0 0 -2
333 111 3 -0.8476 10.435618213825348 5.57448543397176 8.923534907053199 1 -1 4
135 45 3 -0.8476 12.56152842349028 3.998440780784378 13.998737278381823 -1 0 1
384 128 3 -0.3256 11.701015273482973 2.820081977326321 8.940971578882632 0 0 0
3 1 3 -0.8476 8.861643955938652 3.485557456565881 10.143636216710496 -3 2 -2
2 1 2 0.4238 8.137142799434377 3.053673722312675 9.59974164215031 -3 2 -2
74 25 2 0.4238 12.583033985788253 7.16506137623852 9.95864361318102 0 0 0
73 25 2 0.4238 12.255606853166263 6.767172132220217 11.556667929554504 0 0 0
58 20 2 0.4238 9.502670377168467 1.2649935925707112 11.741685315102842 1 0 0
152 51 2 0.4238 14.062387049046562 5.24188898133658 10.965549291280054 1 -2 -2
75 25 3 -0.8476 12.542178803853446 6.441462254027066 10.635919482256307 0 0 0
153 51 3 -0.8476 14.916907266976672 5.019533378515287 11.553759057178079 1 -2 -2
383 128 3 -0.3256 12.635217055854092 2.1754290561058918 10.994617905499119 0 0 0
133 45 2 0.4238 12.55953776815152 4.960578435499123 13.676111080398654 -1 0 1
151 51 2 0.4238 15.046866407980865 5.765892398021907 12.124015577080215 1 -2 -2
43 15 2 0.4238 9.664566690033864 3.1723172797376016 13.425906159507516 -2 1 1
382 128 1 0.6512 12.233778930266814 2.4923386028170578 9.949403445621831 0 0 0
44 15 2 0.4238 9.670889036355392 3.140355435400272 11.840226135941624 -2 1 1
1 1 2 0.4238 9.457620767722787 4.02020367784101 9.546978084563248 -3 2 -2
45 15 3 -0.8476 10.178872246002145 2.905645245553545 12.643432157916317 -2 1 1
331 111 2 0.4238 9.863496082327854 6.36705802154454 8.974516136204102 1 -1 4
134 45 2 0.4238 12.063914483479476 3.535924482250483 13.348584667039141 -1 0 1
90 30 3 -0.8476 11.576907575451973 6.843730065365094 13.173690919333199 -1 2 -3
332 111 2 0.4238 11.085038939816346 5.68966409689146 9.680446533745533 1 -1 4
50 17 2 0.4238 10.685587275972413 15.605035544958438 12.433348266311777 2 1 -1
89 30 2 0.4238 11.969643609428557 7.503032810891213 13.819243087113653 -1 2 -3
5 2 2 0.4238 14.733220918051021 3.6217146871810737 14.13641965522622 2 1 1
334 112 2 0.4238 15.128340237614452 0.3422983518905418 11.19279802718588 -2 2 0
18 6 3 -0.8476 8.693200522486839 7.429242017498948 12.787334744592858 1 0 -1
88 30 2 0.4238 10.608312243812252 7.079390742220717 13.133574907745183 -1 2 -3
60 20 3 -0.8476 9.364609241218004 0.5771314233641172 11.077207581301952 1 0 0
59 20 2 0.4238 9.463026306227304 0.9511138084400605 10.194954073737316 1 0 0
279 93 3 -0.8476 8.471051713398149 7.6562474975045784 8.811480555065263 -1 -2 2
318 106 3 -0.8476 15.252119894415472 7.766680888239147 12.705804842798802 1 -1 3
93 31 3 -0.8476 7.763601576938764 7.106248324219335 15.311152894396288 -1 0 -3
16 6 2 0.4238 8.230563925617643 7.415194026668477 13.675367908798997 1 0 -1
49 17 2 0.4238 11.402933403109644 14.736133593984846 13.509775868852914 2 1 -1
51 17 3 -0.8476 11.128618693037634 15.625585424489593 13.323035318876697 2 1 -1
164 55 2 0.4238 4.342910349014416 12.617118164762 8.039616922861665 3 0 -2
206 69 2 0.4238 7.058850160715568 14.099304411787152 14.968452429700967 0 -1 2
371 124 2 0.4238 2.9220489090915955 7.153899945329568 9.374254111142273 2 1 -1
172 58 2 0.4238 0.9254355047889259 15.481403332327913 15.288034013785488 3 -2 0
124 42 2 0.4238 3.514346249903071 15.258721283867933 11.218816155644982 -2 -2 -1
38 13 2 0.4238 4.308932249613525 9.803355355091668 15.08481903075329 1 1 1
23 8 2 0.4238 2.597522651926481 14.705878077493743 14.74214516232322 0 0 1
22 8 2 0.4238 1.8474414397003858 15.054258797383364 13.38581056491153 0 0 1
24 8 3 -0.8476 1.7621932256673754 14.569570364589788 14.256444288858281 0 0 1
233 78 2 0.4238 6.234938973510835 7.147734959816264 10.0586576283219 1 -4 3
234 78 3 -0.8476 5.526721513670227 7.778057921825848 10.01114440551507 1 -4 3
108 36 3 -0.8476 4.884587601438908 14.068417570513901 10.980207041768344 1 -4 -2
37 13 2 0.4238 4.289328283197043 9.136733085238532 13.67534007807848 1 1 1
107 36 2 0.4238 4.928248402958332 13.62394164467054 10.080307545764901 1 -4 -2
39 13 3 -0.8476 3.915375414801719 9.081771301544176 14.560627723233644 1 1 1
106 36 2 0.4238 5.715979598108279 14.616168361732509 11.061928888077349 1 -4 -2
197 66 2 0.4238 5.317229469602335 9.144239509655325 11.169915433330504 1 -2 -1
198 66 3 -0.8476 4.627921995194511 9.567078882340919 11.706115359612788 1 -2 -1
196 66 2 0.4238 3.7785296731936695 9.16545104795347 11.29576383680941 1 -2 -1
80 27 2 0.4238 0.32713812727413827 12.022423861281606 10.222749491065283 2 0 -2
81 27 3 -0.8476 15.639378217433865 12.163113204979492 11.163199480606396 1 0 -2
79 27 2 0.4238 0.6716005093332156 12.024537113817525 11.79066543629392 2 0 -2
20 7 2 0.4238 2.9256028683034234 11.904407776167572 12.837375065701044 1 -1 3
21 7 3 -0.8476 1.973161545500419 12.012031318177163 12.995114541587244 1 -1 3
19 7 2 0.4238 1.96089399308074 12.926267745650685 13.363720609479882 1 -1 3
204 68 3 -0.8476 0.841337987743474 11.596363362884585 8.773532695398995 0 0 2
203 68 2 0.4238 1.3266150036318205 12.337523585531368 8.34272124004849 0 0 2
242 81 2 0.4238 1.6027018806562938 11.214414344638064 14.648717914648065 0 1 -2
77 26 2 0.4238 5.021515318332426 11.095058627500487 12.295788672406173 -1 2 -1
78 26 3 -0.8476 5.0169878740603515 12.000789876489533 12.762341803973854 -1 2 -1
76 26 2 0.4238 4.90982156096411 12.637086413125113 11.98872492403296 -1 2 -1
202 68 2 0.4238 0.1064342325331484 11.52153123691092 8.197018244935899 0 0 2
305 102 2 0.4238 8.014882400198541 11.195820687993333 12.34347107435828 -1 -1 2
306 102 3 -0.8476 8.02326651527971 11.828081152172162 13.10075991109644 -1 -1 2
304 102 2 0.4238 6.994528821683418 12.069871596119086 13.066075070497856 -1 -1 2
232 78 2 0.4238 5.637463504619863 8.236112297636762 9.128733497938414 1 -4 3
10 4 2 0.4238 2.3082061864535515 9.892275312576592 9.483050148657187 -2 3 -1
12 4 3 -0.8476 2.491920841579772 9.100513139742436 10.075934706809784 -2 3 -1
165 55 3 -0.8476 3.8498627846097544 12.999405683248934 8.776247562232506 3 0 -2
11 4 2 0.4238 1.5836512616089524 8.748072957530692 10.200913974782715 -2 3 -1
207 69 3 -0.8476 6.28722518178193 13.670662077632269 15.417939820265877 0 -1 2
269 90 2 0.4238 6.7129171347551075 0.05785053362425785 6.812430978101 -1 3 -2
174 58 3 -0.8476 0.29792960421846115 0.305307754791367 0.16205802845296138 3 -1 1
314 105 2 0.4238 11.297499277341375 10.402209745421256 7.881410109545458 -1 -1 2
117 39 3 -0.8476 13.040232418124198 8.20888532935471 15.0938017484349 2 -2 -2
101 34 2 0.4238 10.81819309214284 7.870968178480468 0.44730780985258894 -2 -1 0
378 126 3 -0.8476 13.358771744720697 12.996300761638382 7.489183623357541 0 -2 0
251 84 2 0.4238 14.356883799933488 15.655951725186075 15.156256594990486 1 0 -2
252 84 3 -0.8476 13.502617273044184 15.40332531897106 14.724036467754534 1 0 -2
247 83 2 0.4238 14.751114571683576 7.738922547222306 9.601824484971637 1 -1 -1
338 113 2 0.4238 12.904775520712754 9.12274611754752 8.673547866304373 -1 -1 1
339 113 3 -0.8476 13.443893353763178 8.291493916083603 8.848272454140941 -1 -1 1
317 106 2 0.4238 14.703525127307383 8.579110339151576 12.597542013495822 1 -1 3
361 121 2 0.4238 9.38716743897046 0.06481595081364411 14.312825497235286 0 0 -2
28 10 2 0.4238 12.567445371231996 13.685043008060664 14.859872479791493 -2 0 -2
115 39 2 0.4238 13.381808492611139 9.106305932231125 14.950635436089785 2 -2 -2
30 10 3 -0.8476 11.895115074877173 12.943573130338194 14.716826945138859 -2 0 -2
139 47 2 0.4238 14.526841396559792 13.804766857413492 11.957920213235925 -1 1 -1
141 47 3 -0.8476 13.901981720307214 14.58693102873166 11.88450594772262 -1 1 -1
325 109 2 0.4238 14.435040142915733 11.177020931761106 11.82048759393932 -1 0 -1
313 105 2 0.4238 12.488945076176138 11.375566006829718 8.16258767459272 -1 -1 2
315 105 3 -0.8476 12.171654850733375 10.470120627077469 8.415042684932926 -1 -1 2
280 94 2 0.4238 8.460054230144154 8.756044935825871 11.738659595722664 3 -2 -2
281 94 2 0.4238 9.367946723130178 9.792730016489074 11.07058343969285 3 -2 -2
282 94 3 -0.8476 8.391511797239774 9.497188645883254 11.110512934464568 3 -2 -2
277 93 2 0.4238 8.455683909890901 8.38552202523309 9.473185543575314 -1 -2 2
138 46 3 -0.8476 11.130708912274022 10.367894644147567 10.988233934781979 -3 1 -1
136 46 2 0.4238 11.471034129634385 10.324022211327028 10.087001721881297 -3 1 -1
343 115 2 0.4238 6.432821060112482 10.887403084013178 8.593918615844581 0 -1 1
211 71 2 0.4238 10.19555357194615 11.993343283878703 15.154662060671551 1 1 0
212 71 2 0.4238 8.951001936963072 11.295798473813988 14.567833343395012 1 1 0
213 71 3 -0.8476 9.615937710231197 11.200136143990658 15.280287103802147 1 1 0
137 46 2 0.4238 10.853019711895046 11.310185857398444 11.072887625405993 -3 1 -1
40 14 2 0.4238 14.09808485060617 10.842427702633126 14.110159543216218 1 2 -1
258 86 3 -0.8476 8.831501363003753 13.495099184395349 8.864550976316195 -2 0 -2
363 121 3 -0.8476 8.522568064001453 15.499917332644175 14.666331949813403 0 -1 -2
100 34 2 0.4238 10.124721408687309 9.329827610751474 0.016514278302159967 -2 -1 0
376 126 2 0.4238 12.976566211135545 13.442007131064107 8.23663331309766 0 -2 0
42 14 3 -0.8476 14.044936720679983 10.97691944758853 15.062300097591942 1 2 -1
327 109 3 -0.8476 13.848512419481661 10.460736824103638 12.33609120025428 -1 0 -1
329 110 2 0.4238 11.267507784549338 14.733625231153125 9.686736128975683 0 2 0
256 86 2 0.4238 8.371533963440001 12.593569543615628 8.982949909363365 -2 0 -2
345 115 3 -0.8476 7.111013514518005 11.184477154105707 9.261668741615074 0 -1 1
29 10 2 0.4238 12.503109962368505 12.200923710816571 14.833312067150928 -2 0 -2
344 115 2 0.4238 7.062352885652384 10.380124812808665 9.767564307859987 0 -1 1
326 109 2 0.4238 12.93859489816222 10.499727779784417 12.002320240864737 -1 0 -1