LAMMPS data file via write_data, version 28 Mar 2023, timestep = 50000, units = metal

543 atoms
3 atom types

0 15 xlo xhi
0 15 ylo yhi
0 100 zlo zhi

Masses

1 12.0107
2 2.00000
3 15.9994

Atoms # full/kk

495 165 3 -0.8476 14.858372646184725 1.7552340437207195 36.112161331944286 -3 1 0
487 163 2 0.4238 3.9461592924240914 2.6482252317241755 35.43304772257547 1 0 0
494 165 2 0.4238 0.3759501835965917 2.1117247914679025 35.35075485051739 -2 1 0
470 157 2 0.4238 3.70445999238676 14.833823310943549 36.340648977989886 4 0 0
489 163 3 -0.8476 3.8739250112200208 1.731770135184548 35.43648182510119 1 0 0
488 163 2 0.4238 4.812948384988637 1.4598546822052176 35.248820286199226 1 0 0
198 66 3 -0.8476 1.93696284233185 6.174406892535306 36.70905203930921 1 2 0
471 157 3 -0.8476 3.582576852380429 14.234213618547985 37.085833373795225 4 0 0
322 108 2 0.4238 10.563691288823277 14.316913610251733 37.69375829064643 -1 4 0
174 58 3 -0.8476 6.91496392391592 1.4234706298015936 35.789078671633106 1 -2 0
217 73 2 0.4238 7.91781916086194 3.943469703700842 37.176066328099814 2 5 0
274 92 2 0.4238 8.705778507592044 4.7449887886508195 35.58489468227175 4 -5 0
276 92 3 -0.8476 8.893751037725474 3.768578351982013 35.62557216933255 4 -5 0
275 92 2 0.4238 9.83175927645299 3.7212205763235824 35.987100533968785 4 -5 0
172 58 2 0.4238 7.387263156409093 2.254877225370403 35.549651836007406 1 -2 0
173 58 2 0.4238 7.530040216648262 0.7207500199036712 35.449537176612786 1 -2 0
21 7 3 -0.8476 10.48561158235576 7.810710694937972 37.04472826909261 1 2 0
41 14 2 0.4238 9.399201706230723 14.459029288024942 35.81573176994172 -2 3 0
42 14 3 -0.8476 8.895786629478518 14.806377134182421 35.05256128807667 -2 3 0
504 168 3 -0.8476 8.523803261347386 6.481076075491646 35.35939455622065 0 -2 0
20 7 2 0.4238 10.097661007305954 8.082563317641531 37.893762229250896 1 2 0
502 168 2 0.4238 7.80973629464813 6.86621664685284 34.812269053490475 0 -2 0
503 168 2 0.4238 8.900916568645487 7.157703426348922 35.97289802792942 0 -2 0
19 7 2 0.4238 11.123009317048101 7.164177826330528 37.38945255873362 1 2 0
399 133 3 -0.8476 6.448130013908919 8.76908942661172 38.46569337353046 -6 -2 0
397 133 2 0.4238 6.76095653069846 9.356830511593627 37.763934391199264 -6 -2 0
346 116 2 0.4238 5.382180227301327 10.923809293538634 35.74020964316603 -1 -1 0
4 2 2 0.4238 0.2984603335525793 13.765729555044844 37.34433406520158 -3 -1 0
40 14 2 0.4238 8.84079156779352 13.830738329648511 34.66891269134056 -2 3 0
197 66 2 0.4238 2.0267879101628874 5.301666018657995 37.10973235447858 1 2 0
56 19 2 0.4238 4.663187689938428 11.43345716188263 37.49229762815254 0 3 0
348 116 3 -0.8476 5.626172700497504 10.012726704420055 35.35531562966445 -1 -1 0
57 19 3 -0.8476 5.213294617400095 12.140762198858079 37.04206582466499 0 3 0
55 19 2 0.4238 4.661232181261585 12.94182292424978 36.963225051071156 0 3 0
190 64 2 0.4238 7.399105374912129 10.073608830834093 35.78929750537604 -2 -2 0
6 2 3 -0.8476 0.9839463825971967 13.315374987111953 37.86790586278946 -3 -1 0
5 2 2 0.4238 1.869358694122977 13.490972638214702 37.48602915457269 -3 -1 0
192 64 3 -0.8476 8.383000807272078 9.999908170742634 35.80430281843659 -2 -2 0
385 129 2 0.4238 11.650518220120093 9.164184247282348 36.462935507023346 -2 -3 0
104 35 2 0.4238 13.921297589090667 12.724599923118216 39.86181415642265 -3 0 0
100 34 2 0.4238 11.525913973723515 12.540631178296696 34.37887155260282 -1 4 0
101 34 2 0.4238 12.268852053669985 11.767108306519965 35.42327235306028 -1 4 0
323 108 2 0.4238 10.935779430001693 13.23807012434702 36.52890259228308 -1 4 0
102 34 3 -0.8476 12.096364477861545 12.695875507256538 35.17864826330883 -1 4 0
398 133 2 0.4238 7.059672893126578 7.994558787651062 38.24115538353913 -6 -2 0
191 64 2 0.4238 8.757793972802993 10.548283435491443 36.53590942584465 -2 -2 0
379 127 2 0.4238 13.277030848575391 13.765849323557264 35.59282074677385 0 -4 0
324 108 3 -0.8476 10.369981013413199 13.443433705312374 37.287422769929655 -1 4 0
380 127 2 0.4238 13.086954711468527 14.783917121973996 36.80874713950301 0 -4 0
402 134 3 -0.8476 9.263112525610467 12.146673984367808 34.11662889903144 -2 -1 0
401 134 2 0.4238 8.874740250166855 12.069261141478963 33.24870317007819 -2 -1 0
400 134 2 0.4238 8.965597394874337 11.376556965100887 34.7047784506916 -2 -1 0
381 127 3 -0.8476 13.814334527783872 14.303817239542896 36.24266364457357 0 -4 0
375 125 3 -0.8476 14.78318864236891 8.991328132407636 44.24936471064351 -5 0 0
509 170 2 0.4238 5.503541436532053 4.305654197487731 43.28265330785556 0 2 0
493 165 2 0.4238 14.456072356605064 0.9178027171606038 35.764978206239284 -3 1 0
196 66 2 0.4238 2.3563507080775272 6.775338611871557 37.36128220197454 1 2 0
179 60 2 0.4238 3.521814012067293 7.35097842836485 41.88462697986626 -4 1 0
374 125 2 0.4238 0.7549072292596253 8.816035709966629 44.45999440020803 -4 0 0
469 157 2 0.4238 3.9551550065799934 14.836749810797517 37.81079001576057 4 0 0
302 101 2 0.4238 4.784652402229141 5.633743762793085 38.85148771890895 0 3 0
167 56 2 0.4238 1.7485560701788585 3.218668273567277 38.908397953292 -1 1 0
525 175 3 -0.8476 4.518868997711422 0.9335282652685379 39.20327903348063 3 -6 0
524 175 2 0.4238 3.959433523388338 1.6942053832844064 39.20643300173567 3 -6 0
166 56 2 0.4238 2.120160514571601 3.3240225434109862 40.36813974912687 -1 1 0
301 101 2 0.4238 3.921700327810405 4.494357059144889 39.433122674814406 0 3 0
418 140 2 0.4238 2.0960604449126707 5.513762700983959 42.388047151329765 -1 -1 0
523 175 2 0.4238 5.503495195045568 1.2005570223301942 39.20644265677192 3 -6 0
513 171 3 -0.8476 6.53466187903078 3.549881020750926 41.515901104554075 -4 -3 0
168 56 3 -0.8476 2.521890904781609 3.347479112938636 39.4607992865163 -1 1 0
511 171 2 0.4238 6.072860647676818 2.699428965656144 41.72316917477685 -4 -3 0
343 115 2 0.4238 5.504758577817115 0.6970124812660011 42.13383444828927 -5 -2 0
512 171 2 0.4238 5.962151025166213 3.8991484065871878 40.75371053556125 -4 -3 0
344 115 2 0.4238 4.146043247251579 1.2484856848635553 42.26100082095388 -5 -2 0
345 115 3 -0.8476 5.032721108624062 1.5615845829504569 42.3694807101578 -5 -2 0
120 40 3 -0.8476 1.2219520206997552 3.9293966894728247 41.883007697710305 -2 -2 0
119 40 2 0.4238 1.572378342987996 3.2848783738054794 42.59878748629378 -2 -2 0
303 101 3 -0.8476 4.854473057212062 4.710748721454842 39.14988591373232 0 3 0
118 40 2 0.4238 0.25898051321110077 4.05269552002861 41.827024406226556 -2 -2 0
218 73 2 0.4238 6.764974853713732 4.325870369944736 38.25634643390342 2 5 0
420 140 3 -0.8476 2.524961975193327 6.154287291544209 42.9897095248354 -1 -1 0
369 123 3 -0.8476 2.7136276370298122 2.6524421900099044 43.88805212947121 -2 3 0
367 123 2 0.4238 3.1331875723106317 1.781367729999016 43.69886874688916 -2 3 0
66 22 3 -0.8476 0.06688594097511014 2.3171859502369987 38.74808774889546 -1 -1 0
151 51 2 0.4238 1.222204113881934 14.509282739403229 39.35916021338356 0 0 0
320 107 2 0.4238 8.034102731695922 4.101066508669224 42.69150866918884 4 5 0
153 51 3 -0.8476 1.0735209558538956 0.158117732515318 40.121954564096995 0 1 0
152 51 2 0.4238 0.9153377073676847 0.9833397049167708 39.717706342552866 0 1 0
206 69 2 0.4238 3.955213582901957 7.465670547872699 39.59547314640888 -2 0 0
207 69 3 -0.8476 3.8111996835393676 7.295821799670355 38.594688466656 -2 0 0
220 74 2 0.4238 9.129627766238906 7.034054284156425 39.78634729727634 0 -1 0
396 132 3 -0.8476 9.528409845869007 7.364820451641458 42.54122168682493 -1 -3 0
394 132 2 0.4238 9.384457160424581 6.449044255336977 42.832132164975846 -1 -3 0
222 74 3 -0.8476 8.305704465312534 6.86973215987575 39.24572311965965 0 -1 0
484 162 2 0.4238 14.521007253592977 14.685937520293525 40.49441889434955 -3 1 0
221 74 2 0.4238 8.312776993092395 5.888370877122755 39.138452831445804 0 -1 0
395 132 2 0.4238 8.614985105547754 7.665153477461125 42.55677183551407 -1 -3 0
16 6 2 0.4238 1.1304683444278865 1.896912931685556 44.69220307911157 2 4 0
76 26 2 0.4238 7.442884966976514 0.9170688731081681 37.69096405578099 -2 0 0
78 26 3 -0.8476 7.389305397003081 1.170178600018538 38.638401800721326 -2 0 0
77 26 2 0.4238 7.335375141071428 2.122195851118356 38.61334165801248 -2 0 0
112 38 2 0.4238 9.34468738591795 1.090684473108221 41.46025249216209 4 0 0
219 73 3 -0.8476 7.659356365345469 4.028864905428304 38.168181534369054 2 5 0
65 22 2 0.4238 14.469102900880449 2.872738075942813 39.26158074281602 -2 -1 0
425 142 2 0.4238 10.180321370616024 3.8697003797077416 38.113019080571576 0 4 0
64 22 2 0.4238 14.70056497782333 2.1010592472325187 37.885042199608556 -2 -1 0
193 65 2 0.4238 12.045149410593526 6.450003384273757 39.19910181878669 -5 1 0
195 65 3 -0.8476 12.523073729052985 5.94135759082003 38.50232220575527 -5 1 0
194 65 2 0.4238 13.34836050183347 6.4518131809220325 38.22152043812134 -5 1 0
150 50 3 -0.8476 12.03087524136081 2.354262241550729 42.70257616156759 1 -2 0
424 142 2 0.4238 11.668603045726194 4.361456063174849 37.88285086547844 0 4 0
426 142 3 -0.8476 11.020181582542085 3.577772898853583 37.755620856147644 0 4 0
411 137 3 -0.8476 12.05299410732075 0.833590880251285 37.9909724143982 2 0 0
410 137 2 0.4238 12.337394865215098 0.7898308184950453 38.94167028572201 2 0 0
439 147 2 0.4238 10.60707796956601 7.693401847977731 41.169325254647006 0 -3 0
114 38 3 -0.8476 9.28080822706158 1.9147432448926027 41.94975659566822 4 0 0
441 147 3 -0.8476 11.193737224134765 7.833660278760168 40.34223055387082 0 -3 0
478 160 2 0.4238 13.374453168331767 4.824082616613977 40.27075665431614 -4 3 0
480 160 3 -0.8476 13.568730179459566 4.422753021742329 41.09427307538571 -4 3 0
34 12 2 0.4238 10.051371580346249 4.6540953266108485 41.160350247638455 -1 1 0
36 12 3 -0.8476 10.40685704466054 3.929040405555339 40.57008934229114 -1 1 0
35 12 2 0.4238 9.850222115983126 3.2024099325893496 40.818966857363876 -1 1 0
479 160 2 0.4238 12.894394775147452 3.8264062980488602 41.29474333939895 -4 3 0
113 38 2 0.4238 8.689436506092234 1.728140394619943 42.71563177345757 4 0 0
149 50 2 0.4238 11.132798100194236 2.45735747106424 42.21091249913757 1 -2 0
409 137 2 0.4238 11.340924454939593 1.5202225091315456 37.953305020161174 2 0 0
87 29 3 -0.8476 14.469298033539165 7.6893801683037974 37.41731266202721 4 2 0
405 135 3 -0.8476 6.348577513740836 10.210991535523252 40.795125171255 -1 1 0
403 135 2 0.4238 6.609006743714408 11.097998401014836 40.503471717238114 -1 1 0
475 159 2 0.4238 1.3202018250738945 14.820600105013753 43.26024740443055 3 -13 -1
477 159 3 -0.8476 2.2850805712211577 14.909300675409474 43.01868846973535 3 -13 -1
205 69 2 0.4238 4.556133588671147 7.714600342969057 38.16121662581113 -2 0 0
505 169 2 0.4238 1.8390851974336626 11.453148010677047 41.629319756906646 -1 -5 0
178 60 2 0.4238 4.240570300533709 8.710525613478465 41.41668602985269 -4 1 0
467 156 2 0.4238 4.004642665612096 10.965803441928875 42.545656903923586 1 -3 0
360 120 3 -0.8476 6.513207531552806 7.499109344538265 43.047336108492416 0 1 0
404 135 2 0.4238 6.382329077066361 9.72053173819885 39.8959428617635 -1 1 0
180 60 3 -0.8476 4.249218952172019 7.754146554276662 41.31722335245613 -4 1 0
413 138 2 0.4238 5.895193683971827 11.567328973932845 43.421252336957366 -2 0 0
454 152 2 0.4238 7.7844822492476755 11.844728301369425 39.1084309328251 0 1 0
455 152 2 0.4238 6.6298927164979755 12.772797323840443 38.70878630115307 0 1 0
107 36 2 0.4238 7.39100490066104 14.170208409343598 41.912076098754575 -4 -1 0
106 36 2 0.4238 6.184079544157966 13.682167992891737 41.087182653511626 -4 -1 0
535 179 2 0.4238 4.248824732215006 14.249971830293537 40.19201888232399 0 1 0
414 138 3 -0.8476 5.162604591427023 12.187442242223714 43.59747962175247 -2 0 0
8 3 2 0.4238 4.123923758236606 9.968508819370761 39.54643016936343 -4 -3 0
358 120 2 0.4238 6.049603268521804 8.07508950653336 43.6673188220237 0 1 0
347 116 2 0.4238 5.128351592027257 9.36811016852745 35.835657228290636 -1 -1 0
86 29 2 0.4238 0.26451003552691704 7.341044079034556 37.01570211153271 5 2 0
9 3 3 -0.8476 3.9759305277438552 10.788562084597045 39.04701721336241 -4 -3 0
412 138 2 0.4238 5.401904302769597 12.911535781071 42.97458898630667 -2 0 0
456 152 3 -0.8476 7.17719366208796 12.583254765934836 39.48079653532473 0 1 0
7 3 2 0.4238 4.275856545080083 11.56556424504893 39.57868153403867 -4 -3 0
359 120 2 0.4238 5.963876374617647 7.452323460796815 42.17523393330859 0 1 0
468 156 3 -0.8476 3.2361581514588593 10.38944235169564 42.38843501640005 1 -3 0
537 179 3 -0.8476 4.278061502198858 13.362326336511112 40.55347345871076 0 1 0
85 29 2 0.4238 14.882218379122202 8.121446059360308 38.13460866875309 4 2 0
476 159 2 0.4238 2.315802393345362 14.678330921389877 42.05474774557138 3 -13 -1
506 169 2 0.4238 0.8275580535256771 11.825802713068288 40.43497097597234 -1 -5 0
536 179 2 0.4238 3.349420174790417 13.231221905642299 40.882380801717346 0 1 0
108 36 3 -0.8476 6.406937543824726 14.338733570226456 41.80840885936735 -4 -1 0
507 169 3 -0.8476 1.2159266806925872 12.145771458052867 41.29117957755503 -1 -5 0
452 151 2 0.4238 14.811125772432206 9.957671464015961 40.09794200975395 -3 -1 0
453 151 3 -0.8476 14.588358448697186 9.009883258954304 39.82981747908752 -3 -1 0
306 102 3 -0.8476 13.720861554238658 7.283870879058026 42.44594547961759 1 0 0
373 125 2 0.4238 14.430481795350891 8.223954687376988 43.78273389123555 -5 0 0
451 151 2 0.4238 14.377493879883826 8.63802402026861 40.68980854539556 -3 -1 0
254 85 2 0.4238 9.861552782650604 11.030371772815338 38.71351323313884 -2 0 0
182 61 2 0.4238 12.497484167419014 11.15672585658107 42.94479967709741 1 -6 0
246 82 3 -0.8476 7.373509238433335 10.613611626753785 43.30059143713524 2 0 0
305 102 2 0.4238 13.65068907487967 6.370369715681802 42.25380601156061 1 0 0
304 102 2 0.4238 12.804506847073787 7.63292166421475 42.23175352506639 1 0 0
386 129 2 0.4238 13.155939296334513 9.227165062732569 36.660137960474806 -2 -3 0
245 82 2 0.4238 7.516158655792251 10.052385551502104 44.14376826092124 2 0 0
183 61 3 -0.8476 11.609728953138978 10.83222713919709 42.66635652524773 1 -6 0
247 83 2 0.4238 14.9402648483785 12.098817264840873 42.50293561229778 -3 -1 0
181 61 2 0.4238 10.948526041943415 11.556162799394281 42.790951971547884 1 -6 0
387 129 3 -0.8476 12.3815317057761 9.803767888649517 36.380401296350506 -2 -3 0
105 35 3 -0.8476 14.075415968271619 11.826509831648018 39.41223540445147 -3 0 0
48 16 3 -0.8476 9.01282456684461 12.870649901673445 42.977733277876176 -1 2 0
244 82 2 0.4238 7.25296639564648 9.942548576735211 42.6181567270697 2 0 0
204 68 3 -0.8476 11.40410056497855 10.425837603256594 39.854203458965756 1 -9 0
203 68 2 0.4238 12.239355299483675 10.734840380119893 39.449726253924155 1 -9 0
202 68 2 0.4238 11.44729086964891 10.608652894241466 40.84105163979335 1 -9 0
255 85 3 -0.8476 9.114209075054065 11.3449846020984 38.152735510201396 -2 0 0
253 85 2 0.4238 9.421762461704121 12.23743900258541 37.77613508278457 -2 0 0
46 16 2 0.4238 8.66421859488078 11.943155549187223 42.973639267654846 -1 2 0
103 35 2 0.4238 14.513650068442956 12.112764082426873 38.58524302857268 -3 0 0
485 162 2 0.4238 13.239391363565222 14.274891379929716 41.30522233450811 -3 1 0
486 162 3 -0.8476 13.598658071280324 14.352955962574045 40.38466296230187 -3 1 0
134 45 2 0.4238 11.069490404989233 14.513986614694694 42.306605989012205 -2 -1 0
440 147 2 0.4238 11.149350679338362 8.813434192095782 40.118569631846015 0 -3 0
135 45 3 -0.8476 11.9084553141357 14.541072490968094 42.82947286572535 -2 -1 0
133 45 2 0.4238 12.093346957092297 0.5098230118251055 42.83335161836744 -2 0 0
72 24 3 -0.8476 9.645728432651303 14.674724154519666 40.12004428560959 -2 2 0
70 24 2 0.4238 9.065380939392874 13.911438716831404 40.38725420989066 -2 2 0
71 24 2 0.4238 8.886706796128548 0.24990917964770318 39.862278309899686 -2 3 0
496 166 2 0.4238 3.415480531841168 7.020675018437632 46.443858187902954 3 2 0
171 57 3 -0.8476 1.6898648467974229 14.499513427261794 47.020405079887716 -3 2 0
170 57 2 0.4238 2.554642892588263 14.395671082851889 46.539268893541035 -3 2 0
292 98 2 0.4238 8.490807860333694 0.3783275455567479 44.85293383748577 -1 -2 0
266 89 2 0.4238 1.4269793744264803 0.19495292056475166 48.6884530958661 -1 -2 0
294 98 3 -0.8476 8.323876428684892 1.2003127512610998 44.309129764465254 -1 -2 0
352 118 2 0.4238 3.0662819677256583 3.0641656552860854 48.81104971181009 -1 -1 0
14 5 2 0.4238 1.725812257181563 7.29981079434247 48.54752063117055 3 1 0
146 49 2 0.4238 6.5227333038321 6.878978191089879 46.54961021399029 2 1 0
298 100 2 0.4238 5.0524223029758755 2.6460697769041293 45.31795878032097 0 0 0
156 52 3 -0.8476 3.4118391658054277 5.085755992119594 46.415764328408976 2 -5 0
30 10 3 -0.8476 4.730092555620455 6.280976591365482 49.52065936223975 2 1 0
82 28 2 0.4238 7.844353429662499 4.990476942949981 45.84744557777058 -3 -2 0
155 52 2 0.4238 3.7899554050198683 4.386485387526331 46.98843944246129 2 -5 0
293 98 2 0.4238 7.6629508247123175 1.7459139802506707 44.75916547070104 -1 -2 0
29 10 2 0.4238 5.479958084225675 6.603810979362659 49.99304493965192 2 1 0
213 71 3 -0.8476 5.060056629336691 3.2498867438720844 48.265111809148095 1 2 0
83 28 2 0.4238 7.265983334826953 5.390502082142618 44.54305634323526 -3 -2 0
211 71 2 0.4238 5.958344720396559 3.3770769667405354 48.6682743103004 1 2 0
84 28 3 -0.8476 7.001572230481485 5.410921573517068 45.48315766879191 -3 -2 0
212 71 2 0.4238 5.291781112237916 2.519467328844189 47.610466906097805 1 2 0
13 5 2 0.4238 1.897370988938079 5.983255212090417 47.89709329233167 3 1 0
434 145 2 0.4238 0.8366388807106026 3.616857111357461 47.538368647403786 -2 1 0
300 100 3 -0.8476 5.488911482265129 2.060640704404599 45.93370442694602 0 0 0
435 145 3 -0.8476 0.6236394522759462 3.720149894750116 46.60107877198321 -2 1 0
299 100 2 0.4238 5.155312862249533 1.1523645088167884 45.78117778895594 0 0 0
508 170 2 0.4238 5.333709404492696 4.800664399364274 44.66270972806635 0 2 0
154 52 2 0.4238 2.486048212591945 4.972928812448805 46.095974293794754 2 -5 0
510 170 3 -0.8476 4.8323061608779065 4.627084977713348 43.82420009955718 0 2 0
265 89 2 0.4238 1.3431393302088905 14.994721870060332 50.23611347591801 -1 -3 0
267 89 3 -0.8476 0.9394050536316536 0.5102620681213174 49.506280091097 -1 -2 0
368 123 2 0.4238 3.453559187079577 3.3280943259660907 43.90938105088662 -2 3 0
419 140 2 0.4238 3.16348045787109 5.532067262770868 43.39621147483254 -1 -1 0
89 30 2 0.4238 13.81974798708493 1.7935029336627348 45.50849336225547 1 -1 0
97 33 2 0.4238 9.799129071415592 3.98852583099683 46.598292078244704 -2 0 0
349 117 2 0.4238 1.0467940193957324 6.31249102805097 44.44865194653684 -1 1 0
350 117 2 0.4238 0.4431429216767374 5.2490597807202874 45.41443837605849 -1 1 0
15 5 3 -0.8476 1.5131332763908738 6.355062508049355 48.66534316780896 3 1 0
433 145 2 0.4238 0.2146882231747368 2.955849811601449 46.28443277059097 -2 1 0
317 106 2 0.4238 7.978522989922631 1.109393806591864 49.64380969984079 1 2 0
436 146 2 0.4238 12.786953011831432 0.05521855678191984 48.64065741785429 -3 2 0
117 39 3 -0.8476 7.758338117712067 3.259298566297001 49.551224068340375 -1 -1 0
116 39 2 0.4238 7.85398724347123 3.8060574648658854 50.4061963819997 -1 -1 0
351 117 3 -0.8476 0.39719740701841866 6.205743584504857 45.223657360675 -1 1 0
321 107 3 -0.8476 8.733034572162605 4.475805972535486 43.22627517811737 4 5 0
62 21 2 0.4238 14.166932666649199 8.611404582583647 46.07864536315625 -3 1 0
52 18 2 0.4238 10.227044647294104 7.549855682266652 46.35264561486669 0 4 0
44 15 2 0.4238 12.210205062350338 6.669006488906105 44.93148995669736 1 1 0
98 33 2 0.4238 9.224964572560031 5.255561956711411 47.177243423319325 -2 0 0
54 18 3 -0.8476 9.388038330774238 7.344989691167414 46.81518480665264 0 4 0
312 104 3 -0.8476 10.735044480964039 3.5001478169225675 45.162472537543955 -4 -2 0
115 39 2 0.4238 8.065949919568672 3.7845369178436465 48.78363075324487 -1 -1 0
45 15 3 -0.8476 12.471648675327714 5.846573741024209 45.37585575846805 1 1 0
90 30 3 -0.8476 12.877739064523503 1.909976822823296 45.85879775637874 1 -1 0
88 30 2 0.4238 13.002282337853714 1.8520448799182627 46.83272519607019 1 -1 0
17 6 2 0.4238 0.8590895039923252 0.5513150435754022 45.42928013120272 2 4 0
43 15 2 0.4238 13.187434364543474 5.521310061247997 44.848237528758524 1 1 0
233 78 2 0.4238 14.556901675393657 1.5215866735440664 48.797997361388255 -4 6 0
319 107 2 0.4238 9.02235221015502 3.822296665123502 43.86655645367929 4 5 0
99 33 3 -0.8476 9.0136104849017 4.337033654015797 47.021295859718705 -2 0 0
63 21 3 -0.8476 14.0916877379841 8.137566472760305 46.976596112429924 -3 1 0
61 21 2 0.4238 14.437655483524594 7.2450495267438235 46.87575849610609 -3 1 0
311 104 2 0.4238 11.077660764577665 2.62403334800637 45.35146171053434 -4 -2 0
310 104 2 0.4238 11.422037125035077 4.136763130564874 45.32237767101364 -4 -2 0
232 78 2 0.4238 13.243364079597269 2.3616972433135777 49.068408257477394 -4 6 0
18 6 3 -0.8476 0.4534470607975369 1.189331363946183 44.844590763162586 2 4 0
234 78 3 -0.8476 13.688248763154077 1.7542751605243019 48.43874271058268 -4 6 0
148 50 2 0.4238 11.770869289548052 2.7969910033439063 43.51962698032525 1 -2 0
272 91 2 0.4238 4.237075835629982 13.919736310966584 44.94582232652625 3 0 0
443 148 2 0.4238 2.30079995809899 10.330698103746679 45.35244170828649 1 -1 0
331 111 2 0.4238 6.8365057003398135 11.441089155775005 46.43171911043253 0 1 0
333 111 3 -0.8476 6.229763171766141 12.28090242608785 46.31847393023648 0 1 0
332 111 2 0.4238 5.819344832888875 12.163947582489358 45.35771316552746 0 1 0
444 148 3 -0.8476 2.6217477430775196 9.507735789848924 44.92698351970131 1 -1 0
442 148 2 0.4238 2.958602078257517 8.921756420091391 45.68111268901968 1 -1 0
223 75 2 0.4238 3.5911503728854344 7.955514820464757 49.50365591384014 0 -1 0
498 166 3 -0.8476 3.516672085374806 7.888829772842353 46.894259365128576 3 2 0
497 166 2 0.4238 4.494377154568668 8.0596072007427 47.06265540437888 3 2 0
185 62 2 0.4238 7.91954781345389 9.475135481962118 49.992116436472834 -1 -3 0
177 59 3 -0.8476 3.102160537287274 11.9476952134229 50.76781273044752 2 2 0
176 59 2 0.4238 3.5407321095810875 11.55052814172852 49.96453554791483 2 2 0
169 57 2 0.4238 1.4073718747590316 13.56699866554752 47.260054492081586 -3 2 0
430 144 2 0.4238 4.93311652007755 11.185832868779478 47.6642734447251 -1 0 0
431 144 2 0.4238 4.413442569110601 10.252384598295514 48.8681743504051 -1 0 0
432 144 3 -0.8476 4.923131918398037 11.010167053478044 48.65104427864406 -1 0 0
147 49 3 -0.8476 6.309346387651362 7.718115811130732 47.05855598427764 2 1 0
145 49 2 0.4238 6.772460117861053 7.6361135479556115 47.88526066309696 2 1 0
271 91 2 0.4238 4.867500775658092 13.67434320950638 46.336313145863365 3 0 0
273 91 3 -0.8476 4.217388971232015 14.257975372299526 45.866844509322554 3 0 0
242 81 2 0.4238 7.647011091661816 13.496221453836904 46.18761297275916 2 0 0
142 48 2 0.4238 0.14859060576964295 8.881848760299984 48.28464745745005 0 -1 0
252 84 3 -0.8476 7.253757087051749 11.141757188542528 51.0946338494241 4 -2 0
250 84 2 0.4238 7.385044637908394 11.841828519632541 50.44758233049007 4 -2 0
225 75 3 -0.8476 3.4582294327315948 8.788742622522813 50.009200051248456 0 -1 0
224 75 2 0.4238 2.5959343155714065 9.053243374430458 49.747284469539814 0 -1 0
466 156 2 0.4238 3.2263609702534572 9.80574965542836 43.25101388364262 1 -3 0
157 53 2 0.4238 0.6018640132328436 11.664784365606373 46.68259206056563 0 -1 0
69 23 3 -0.8476 7.780856763016792 10.113907089084611 45.953411196551016 0 2 0
186 62 3 -0.8476 8.476039180810346 8.771636249489797 49.56414607919362 -1 -3 0
67 23 2 0.4238 8.744128286107948 10.190277817036192 45.94016691628093 0 2 0
184 62 2 0.4238 8.67297136792451 8.26583606816354 50.35659673734669 -1 -3 0
159 53 3 -0.8476 1.1663180924488747 11.750420850051864 45.956838167128225 0 -1 0
68 23 2 0.4238 7.482934998228413 9.262906245264176 46.31701487488846 0 2 0
47 16 2 0.4238 8.857943292943705 13.172215875395771 43.88316955358467 -1 2 0
158 53 2 0.4238 0.6095300287936944 12.144317271545285 45.27707916609829 0 -1 0
316 106 2 0.4238 8.453949549537525 14.742102064344808 49.27319236747811 1 1 0
243 81 3 -0.8476 8.519167498843759 13.986838596518592 46.03861058983083 2 0 0
437 146 2 0.4238 12.299023820081445 14.225765140069333 49.89369436461926 -3 1 0
516 172 3 -0.8476 12.070566415481537 12.787879701115502 45.15872270998497 -3 3 0
248 83 2 0.4238 14.663533331998428 10.861319514180138 43.37124562152766 -3 -1 0
249 83 3 -0.8476 14.377390998302952 11.808014706278243 43.27974896775328 -3 -1 0
515 172 2 0.4238 12.808398257307957 12.406677783773876 44.63339658699067 -3 3 0
514 172 2 0.4238 11.751044972210966 13.561524916218247 44.69386709242425 -3 3 0
122 41 2 0.4238 10.835122417866803 9.802165057518437 46.876863692815355 -1 -3 0
123 41 3 -0.8476 10.46886828857754 10.52153018861173 46.19253304573996 -1 -3 0
121 41 2 0.4238 10.93259848654552 11.368355644845181 46.355886445647066 -1 -3 0
109 37 2 0.4238 10.652218559891464 13.741679183975798 48.58545523305956 -4 -2 0
438 146 3 -0.8476 12.364387088431757 14.254611864033155 48.94046676883911 -3 1 0
144 48 3 -0.8476 0.6857711114116856 9.146978095832775 49.05063177437654 0 -1 0
389 130 2 0.4238 12.472709257887681 11.351407145343513 48.933311568504 -1 2 0
390 130 3 -0.8476 11.710577170236018 11.02576357133978 49.32991587679647 -1 2 0
110 37 2 0.4238 10.053208297961898 12.335939952462343 48.68333495225274 -4 -2 0
111 37 3 -0.8476 9.791038200879791 13.264679175465327 48.53119967849447 -4 -2 0
388 130 2 0.4238 11.56694895424529 10.140782272483056 49.08944186070598 -1 2 0
143 48 2 0.4238 0.14694063943813276 9.80254941423639 49.56766512866922 0 -1 0
131 44 2 0.4238 11.675254001018606 9.001099842997721 44.466085167922905 3 2 0
132 44 3 -0.8476 11.296051957295441 8.133595803050495 44.541521408247355 3 2 0
228 76 3 -0.8476 14.6145083468793 12.33933644193981 48.19817058574323 -1 -5 0
241 81 2 0.4238 9.006743458531643 13.784676976863823 46.86674173470491 2 0 0
130 44 2 0.4238 10.616626348467657 8.01751786632294 43.89171226294854 3 2 0
227 76 2 0.4238 13.966023424818728 13.041678069916287 48.197169078942075 -1 -5 0
226 76 2 0.4238 14.929419533354684 12.223749717436633 49.140362660205184 -1 -5 0
353 118 2 0.4238 1.8823908042467155 2.2706542377562995 49.37063446894262 -1 -1 0
354 118 3 -0.8476 2.1376039973901517 3.161092672159001 49.07302790174284 -1 -1 0
28 10 2 0.4238 4.9309422240304155 5.632531632291342 48.83991063439994 2 1 0
81 27 3 -0.8476 2.411499256734957 4.403741583797145 55.3488538416499 -4 -2 0
80 27 2 0.4238 3.4100321231972672 4.201025762757336 55.05299359767513 -4 -2 0
79 27 2 0.4238 2.1652637260747403 5.178574808907559 54.842035756110064 -4 -2 0
92 31 2 0.4238 3.767102861180888 7.003570371087358 53.05293663808149 -2 -2 0
464 155 2 0.4238 1.4372823875254384 4.014374587767018 50.67229722147912 3 2 0
465 155 3 -0.8476 1.0840221185810943 4.257259704370151 51.58234747872772 3 2 0
165 55 3 -0.8476 3.1105983952290703 5.978198444647959 51.68581699892248 -1 2 0
163 55 2 0.4238 3.676796741609437 5.853628605076144 50.83821875199947 -1 2 0
164 55 2 0.4238 2.5141525289092734 6.650820264412079 51.28228535633762 -1 2 0
269 90 2 0.4238 14.945830824874005 5.566516707603603 50.95317620326663 0 1 0
463 155 2 0.4238 1.734623854310147 4.798152777635282 52.05139625011768 3 2 0
277 93 2 0.4238 3.647674866080467 0.9082095114383784 54.807352091235046 -2 0 0
278 93 2 0.4238 2.128433998846655 1.1899076969068234 54.33602509467458 -2 0 0
279 93 3 -0.8476 3.079372889037767 1.13094780118903 54.00094014016367 -2 0 0
313 105 2 0.4238 4.772402789084093 2.7418806345272837 52.336446158577964 -1 2 0
314 105 2 0.4238 5.100142157315161 2.480264528534675 50.8508578480551 -1 2 0
363 121 3 -0.8476 0.7919705166382345 6.55882379079317 54.082025333039695 -2 1 0
268 90 2 0.4238 14.666233132475408 6.347091658865856 49.668630224587666 0 1 0
342 114 3 -0.8476 7.6734531738030185 4.344109382742197 52.12173073975496 1 -2 0
356 119 2 0.4238 0.21572301161675297 3.0323170362182417 52.82170747401677 -1 -3 0
357 119 3 -0.8476 14.45668234982456 2.5606552895442287 53.27013007236026 -2 -3 0
315 105 3 -0.8476 5.461337825894266 2.7191358532161636 51.7170020954516 -1 2 0
339 113 3 -0.8476 5.65093622545873 4.6720600282438856 55.94142579539934 -4 0 0
91 31 2 0.4238 4.201479520419306 7.4663578174833924 54.46593508157046 -2 -2 0
337 113 2 0.4238 5.095986735764255 4.3138822065158475 56.70116194375012 -4 0 0
338 113 2 0.4238 5.601716678852056 5.664924939370397 56.06711140601891 -4 0 0
138 46 3 -0.8476 4.889512641028019 7.485614172857625 56.14522216829224 -2 1 0
340 114 2 0.4238 7.035443573771147 3.749661609017643 52.51756144382351 1 -2 0
428 143 2 0.4238 14.8057328885922 0.9787739918794129 54.37256028348137 0 -1 0
355 119 2 0.4238 13.991325724247918 2.3509138082594556 52.39712604760249 -2 -3 0
236 79 2 0.4238 7.090258719336375 3.9214983684578515 56.03715901906996 -2 3 0
318 106 3 -0.8476 7.9991026310697535 0.2153725262903419 49.98041388422601 1 2 0
95 32 2 0.4238 8.172223506270766 3.070001800025413 57.926447978031995 -3 3 0
362 121 2 0.4238 14.954322449030219 6.065286033175207 54.1404452535462 -3 1 0
361 121 2 0.4238 0.5763584178148866 7.076904574526084 53.28990859310641 -2 1 0
270 90 3 -0.8476 14.280384344772044 6.066489473131109 50.54336624593876 0 1 0
53 18 2 0.4238 9.345461142774914 7.8644082083991345 47.671717240212786 0 4 0
341 114 2 0.4238 7.223438820369102 5.229030007077224 52.06721345162393 1 -2 0
283 95 2 0.4238 12.335716211779033 6.2822077013556905 50.436758519491946 -1 0 0
285 95 3 -0.8476 11.3438420285665 6.274084212039537 50.277129845242214 -1 0 0
261 87 3 -0.8476 10.013923115368238 0.6985247185450131 52.329694899063654 -2 -1 0
260 87 2 0.4238 9.385024857236573 0.7473681056742485 51.60075806245869 -2 -1 0
330 110 3 -0.8476 9.402206965514518 7.717571622552027 52.33604915210463 -1 -2 0
284 95 2 0.4238 11.043465322798019 6.55222603458325 51.11814103413029 -1 0 0
259 87 2 0.4238 10.222794413591297 1.609416664453414 52.539884473755635 -2 -1 0
391 131 2 0.4238 10.913938745980593 5.861866701900531 54.63385431551496 -3 -2 0
392 131 2 0.4238 12.056038320476313 6.175071822529466 53.85668338234894 -3 -2 0